 Gaussian 09, Revision D.01,
 Gaussian 09:  EM64L-G09RevD.01 24-Apr-2013

 ----------------------------------------------------------------------
 # uwb97xd/aug-cc-pvtz opt=(noeig,intern,maxcyc=50) # int=ultrafine nos
 ym iop(7/33=1) guess=(mix,always)
 ----------------------------------------------------------------------

 ------
 geom 0
 ------
 Symbolic Z-matrix:
 Charge =  0 Multiplicity = 1

 SCF Done:  E(UwB97XD) =  -40.3450014841     A.U. after   16 cycles
 SCF Done:  E(UwB97XD) =  -40.3450052125     A.U. after   16 cycles
 SCF Done:  E(UwB97XD) =  -40.3450120861     A.U. after   16 cycles
 SCF Done:  E(UwB97XD) =  -40.3450234844     A.U. after   16 cycles
 SCF Done:  E(UwB97XD) =  -40.3450365676     A.U. after   16 cycles
 SCF Done:  E(UwB97XD) =  -40.3450380523     A.U. after   16 cycles
 Optimization completed.
    -- Stationary point found.

                         Z-Matrix orientation:
 ---------------------------------------------------------------------
 Center     Atomic      Atomic             Coordinates (Angstroms)
 Number     Number       Type             X           Y           Z
 ---------------------------------------------------------------------
      1          6           0        0.000000    0.000000    0.000000
      2          1           0        0.000000    0.000000    1.078200
      3          1           0        0.934011    0.000000   -0.538645
      4          1           0       -0.933548   -0.003135   -0.539437
      5          1           0        0.003624   -2.799997    0.002254
 ---------------------------------------------------------------------

 Alpha  occ. eigenvalues --  -10.30474  -0.79146  -0.51409  -0.51401  -0.32019
 Alpha virt. eigenvalues --   -0.01129   0.03897   0.05165   0.05166   0.10940
 Alpha virt. eigenvalues --    0.11702   0.12834   0.12836   0.13974   0.19709
 Alpha virt. eigenvalues --    0.19710   0.20574   0.20575   0.26412   0.30473

  Beta  occ. eigenvalues --  -10.29424  -0.74869  -0.50255  -0.50246  -0.39306
  Beta virt. eigenvalues --   -0.00054   0.04234   0.05233   0.05234   0.06392
  Beta virt. eigenvalues --    0.13168   0.13170   0.13434   0.14722   0.19872
  Beta virt. eigenvalues --    0.19874   0.20391   0.20392   0.25890   0.30070

 Mulliken charges and spin densities:
               1          2
     1  C   -1.096079   0.968624
     2  H    0.369240  -0.006177
     3  H    0.369218  -0.006245
     4  H    0.369245  -0.006267
     5  H   -0.011623  -0.949935
 Sum of Mulliken charges =  -0.00000   0.00000

 Dipole moment (field-independent basis, Debye):
    X=             -0.0003    Y=              0.3213    Z=             -0.0002  Tot=              0.3213
 Quadrupole moment (field-independent basis, Debye-Ang):
   XX=             -8.6303   YY=            -11.0246   ZZ=             -8.6307
   XY=              0.0039   XZ=              0.0009   YZ=              0.0022

 Normal termination of Gaussian 09 at Sat Jun  3 09:00:16 2023.
