 Gaussian 09, Revision D.01,
 Gaussian 09:  EM64L-G09RevD.01 24-Apr-2013

 -------------------------------------------------------------
 # uwb97xd/aug-cc-pvtz opt=internal # int=ultrafine nosym freq
 -------------------------------------------------------------

 ------
 geom 0
 ------
 Symbolic Z-matrix:
 Charge =  0 Multiplicity = 2

 SCF Done:  E(UwB97XD) =  -39.8391593784     A.U. after   10 cycles
 SCF Done:  E(UwB97XD) =  -39.8391758199     A.U. after    7 cycles
 Optimization completed.
    -- Stationary point found.
 Normal termination of Gaussian 09 at Tue May 23 11:49:36 2023.

 ----------------------------------------------------------------------
 #N Geom=AllCheck Guess=TCheck SCRF=Check GenChk UwB97XD/Aug-CC-pVTZ Fr
 eq
 ----------------------------------------------------------------------

 Structure from the checkpoint file:  "tmp.chk"
 ------
 geom 0
 ------
 Charge =  0 Multiplicity = 2

                          Input orientation:
 ---------------------------------------------------------------------
 Center     Atomic      Atomic             Coordinates (Angstroms)
 Number     Number       Type             X           Y           Z
 ---------------------------------------------------------------------
      1          6           0        0.000000    0.000000    0.000000
      2          1           0        0.000000    0.000000    1.078188
      3          1           0        0.934013    0.000000   -0.538647
      4          1           0       -0.933509   -0.003135   -0.539415
 ---------------------------------------------------------------------

 SCF Done:  E(UwB97XD) =  -39.8391758199     A.U. after    1 cycles

 Alpha  occ. eigenvalues --  -10.29561  -0.78677  -0.50922  -0.50913  -0.31505
 Alpha virt. eigenvalues --    0.03022   0.04910   0.04911   0.09094   0.13055
 Alpha virt. eigenvalues --    0.13057   0.13242   0.20089   0.20091   0.21811
 Alpha virt. eigenvalues --    0.25913   0.25915   0.31999   0.32377   0.32379

  Beta  occ. eigenvalues --  -10.28440  -0.74176  -0.49697  -0.49688
  Beta virt. eigenvalues --   -0.00037   0.04418   0.05671   0.05672   0.13995
  Beta virt. eigenvalues --    0.13997   0.14292   0.14324   0.20350   0.20351
  Beta virt. eigenvalues --    0.24098   0.26487   0.26489   0.33244   0.33247

 Mulliken charges and spin densities:
               1          2
     1  C   -1.047410   1.025044
     2  H    0.349137  -0.008306
     3  H    0.349126  -0.008359
     4  H    0.349147  -0.008380
 Sum of Mulliken charges =  -0.00000   1.00000

 Dipole moment (field-independent basis, Debye):
    X=              0.0001    Y=             -0.0022    Z=              0.0000  Tot=              0.0022
 Quadrupole moment (field-independent basis, Debye-Ang):
   XX=             -7.1895   YY=             -9.0862   ZZ=             -7.1899
   XY=              0.0032   XZ=              0.0009   YZ=              0.0018

  Exact polarizability:  16.054  -0.001  16.394   0.000  -0.000  16.048
 Approx polarizability:  14.636   0.001  13.748   0.001   0.001  14.635

                      1                      2                      3
                      A                      A                      A
 Frequencies --    527.0094              1409.5282              1409.9017
 Red. masses --      1.2356                 1.1019                 1.1019
 Frc consts  --      0.2022                 1.2899                 1.2905
 IR Inten    --   79.76                  2.974                  2.968

                      4                      5                      6
                      A                      A                      A
 Frequencies --   3122.8565              3303.8341              3304.4443
 Red. masses --      1.0078                 1.1185                 1.1186
 Frc consts  --      5.7908                 7.1934                 7.1963
 IR Inten    --  0.3113E-03              4.459                  4.404

 - Thermochemistry -
 -------------------
 Temperature   298.150 Kelvin.  Pressure   1.00000 Atm.
 Atom     1 has atomic number  6 and mass  12.00000

 Molecular mass:    15.02348 amu.
 Principal axes and moments of inertia in atomic units:
                           1         2         3
     Eigenvalues --     6.27399   6.27731  12.55128
           X            0.78851  -0.61502  -0.00168
           Y            0.00192  -0.00027   1.00000
           Z            0.61502   0.78851  -0.00097
 This molecule is an asymmetric top.
 Rotational symmetry number  1.
 Rotational temperatures (Kelvin)     13.80523    13.79792     6.90080
 Rotational constants (GHZ):         287.65464   287.50234   143.78945
 Zero-point vibrational energy      78221.3 (Joules/Mol)
                                   18.69533 (Kcal/Mol)
 Warning -- explicit consideration of   1 degrees of freedom as
           vibrations may cause significant error
 Vibrational temperatures:    758.25  2027.99  2028.53  4493.09  4753.47
          (Kelvin)           4754.35

 Zero-point correction=                           0.029793 (Hartree/Particle)
 Thermal correction to Energy=                    0.032845
 Thermal correction to Enthalpy=                  0.033789
 Thermal correction to Gibbs Free Energy=         0.010013
 Sum of electronic and zero-point Energies=            -39.809383
 Sum of electronic and thermal Energies=               -39.806331
 Sum of electronic and thermal Enthalpies=             -39.805387
 Sum of electronic and thermal Free Energies=          -39.829163

                     E (Thermal)             CV                S
                      KCal/Mol        Cal/Mol-Kelvin    Cal/Mol-Kelvin
 Total                   20.610              7.357             50.040
 Electronic               0.000              0.000              1.377
 Translational            0.889              2.981             34.068
 Rotational               0.889              2.981             13.966
 Vibrational             18.833              1.395              0.628
 Vibration     1          0.882              1.190              0.594

 Normal termination of Gaussian 09 at Tue May 23 11:49:56 2023.
