 Gaussian 09, Revision D.01,
 Gaussian 09:  EM64L-G09RevD.01 24-Apr-2013

 ----------------------------------------------------------------------
 # uwb97xd/aug-cc-pvtz opt=(noeig,intern,maxcyc=50) # int=ultrafine nos
 ym freq iop(7/33=1) guess=(mix,always)
 ----------------------------------------------------------------------

 ------
 geom 0
 ------
 Symbolic Z-matrix:
 Charge =  0 Multiplicity = 1

 SCF Done:  E(UwB97XD) =  -40.3435771097     A.U. after   14 cycles
 SCF Done:  E(UwB97XD) =  -40.3442798289     A.U. after   14 cycles
 SCF Done:  E(UwB97XD) =  -40.3450136801     A.U. after   14 cycles
 SCF Done:  E(UwB97XD) =  -40.3451025414     A.U. after   16 cycles
 SCF Done:  E(UwB97XD) =  -40.3451372504     A.U. after   16 cycles
 SCF Done:  E(UwB97XD) =  -40.3451378668     A.U. after   16 cycles
 Optimization completed.
    -- Stationary point found.
 Normal termination of Gaussian 09 at Sat Jun  3 08:52:44 2023.

 ----------------------------------------------------------------------
 #N Geom=AllCheck Guess=TCheck SCRF=Check Test GenChk UwB97XD/Aug-CC-pV
 TZ Freq
 ----------------------------------------------------------------------

 Structure from the checkpoint file:  "tmp.chk"
 ------
 geom 0
 ------
 Charge =  0 Multiplicity = 1

                          Input orientation:
 ---------------------------------------------------------------------
 Center     Atomic      Atomic             Coordinates (Angstroms)
 Number     Number       Type             X           Y           Z
 ---------------------------------------------------------------------
      1          6           0        0.000000    0.000000    0.000000
      2          1           0        0.000000    0.000000    1.078253
      3          1           0        0.935039    0.000000   -0.537200
      4          1           0       -0.926941    0.123354   -0.537058
      5          1           0       -0.177486   -2.792537   -0.101165
 ---------------------------------------------------------------------

 SCF Done:  E(UwB97XD) =  -40.3451378668     A.U. after    1 cycles

 Alpha  occ. eigenvalues --  -10.30510  -0.79159  -0.51401  -0.51389  -0.32072
 Alpha virt. eigenvalues --   -0.01101   0.03872   0.05145   0.05146   0.10985
 Alpha virt. eigenvalues --    0.11705   0.12839   0.12841   0.13945   0.19729
 Alpha virt. eigenvalues --    0.19743   0.20574   0.20582   0.26349   0.30594

  Beta  occ. eigenvalues --  -10.29460  -0.74895  -0.50245  -0.50232  -0.39226
  Beta virt. eigenvalues --   -0.00074   0.04208   0.05245   0.05247   0.06396
  Beta virt. eigenvalues --    0.13114   0.13117   0.13417   0.14590   0.19868
  Beta virt. eigenvalues --    0.19887   0.20411   0.20424   0.25871   0.30100

 Mulliken charges and spin densities:
               1          2
     1  C   -1.091777   0.965190
     2  H    0.367684  -0.005610
     3  H    0.367791  -0.005532
     4  H    0.367535  -0.005539
     5  H   -0.011233  -0.948508
 Sum of Mulliken charges =  -0.00000   0.00000

 Dipole moment (field-independent basis, Debye):
    X=              0.0265    Y=              0.4109    Z=              0.0151  Tot=              0.4120
 Quadrupole moment (field-independent basis, Debye-Ang):
   XX=             -8.6480   YY=            -10.9991   ZZ=             -8.6389
   XY=             -0.1554   XZ=             -0.0061   YZ=             -0.0899

  Exact polarizability:  20.916   1.122  38.526   0.042   0.627  20.864
 Approx polarizability:  18.232   0.382  24.256   0.014   0.217  18.216

 ******    1 imaginary frequencies (negative Signs) ******

                      1                      2                      3
                      A                      A                      A
 Frequencies --   -586.1622               274.0839               284.2147
 Red. masses --      1.0908                 1.0209                 1.0209
 Frc consts  --      0.2208                 0.0452                 0.0486
 IR Inten    --   69.41                 0.1630                 0.1692

                      4                      5                      6
                      A                      A                      A
 Frequencies --    600.3995              1410.8947              1411.7223
 Red. masses --      1.1913                 1.1012                 1.1011
 Frc consts  --      0.2530                 1.2915                 1.2930
 IR Inten    --   68.96                  3.157                  3.152

                      7                      8                      9
                      A                      A                      A
 Frequencies --   3124.0105              3305.2971              3305.9444
 Red. masses --      1.0081                 1.1185                 1.1186
 Frc consts  --      5.7966                 7.1998                 7.2031
 IR Inten    --  0.4269E-01              2.386                  2.394

 - Thermochemistry -
 -------------------
 Temperature   298.150 Kelvin.  Pressure   1.00000 Atm.
 Atom     1 has atomic number  6 and mass  12.00000

 Molecular mass:    16.03130 amu.
 Principal axes and moments of inertia in atomic units:
                           1         2         3
     Eigenvalues --    12.53625  32.88019  32.88422
           X            0.06258  -0.09614   0.99340
           Y            0.99741  -0.02934  -0.06567
           Z            0.03546   0.99493   0.09406
 This molecule is an asymmetric top.
 Rotational symmetry number  1.
 Rotational temperatures (Kelvin)      6.90907     2.63422     2.63390
 Rotational constants (GHZ):         143.96177    54.88840    54.88168
    1 imaginary frequencies ignored.
 Zero-point vibrational energy      82043.3 (Joules/Mol)
                                   19.60882 (Kcal/Mol)
 Warning -- explicit consideration of   3 degrees of freedom as
           vibrations may cause significant error
 Vibrational temperatures:    394.35   408.92   863.84  2029.96  2031.15
          (Kelvin)           4494.75  4755.58  4756.51

 Zero-point correction=                           0.031249 (Hartree/Particle)
 Thermal correction to Energy=                    0.035149
 Thermal correction to Enthalpy=                  0.036093
 Thermal correction to Gibbs Free Energy=         0.009923
 Sum of electronic and zero-point Energies=            -40.313889
 Sum of electronic and thermal Energies=               -40.309989
 Sum of electronic and thermal Enthalpies=             -40.309045
 Sum of electronic and thermal Free Energies=          -40.335215

                     E (Thermal)             CV                S
                      KCal/Mol        Cal/Mol-Kelvin    Cal/Mol-Kelvin
 Total                   22.056             10.621             55.080
 Electronic               0.000              0.000              0.000
 Translational            0.889              2.981             34.261
 Rotational               0.889              2.981             17.257
 Vibrational             20.279              4.659              3.562
 Vibration     1          0.676              1.721              1.570
 Vibration     2          0.683              1.703              1.508
 Vibration     3          0.959              1.031              0.449

 Normal termination of Gaussian 09 at Sat Jun  3 08:53:02 2023.
