 Gaussian 09, Revision D.01,
 Gaussian 09:  EM64L-G09RevD.01 24-Apr-2013

 ----------------------------------------------------------------------
 # uwb97xd/aug-cc-pvtz opt=(noeig,intern,maxcyc=50) # int=ultrafine nos
 ym iop(7/33=1) guess=(mix,always)
 ----------------------------------------------------------------------

 ------
 geom 0
 ------
 Symbolic Z-matrix:
 Charge =  0 Multiplicity = 1

 SCF Done:  E(UwB97XD) =  -79.6830399629     A.U. after   15 cycles
 SCF Done:  E(UwB97XD) =  -79.7215061228     A.U. after   15 cycles
 SCF Done:  E(UwB97XD) =  -79.7357058653     A.U. after   15 cycles
 SCF Done:  E(UwB97XD) =  -79.7402260005     A.U. after   14 cycles
 SCF Done:  E(UwB97XD) =  -79.7405339448     A.U. after   14 cycles
 SCF Done:  E(UwB97XD) =  -79.7405462489     A.U. after   14 cycles
 SCF Done:  E(UwB97XD) =  -79.7405467351     A.U. after   14 cycles
 Optimization completed.
    -- Stationary point found.

                         Z-Matrix orientation:
 ---------------------------------------------------------------------
 Center     Atomic      Atomic             Coordinates (Angstroms)
 Number     Number       Type             X           Y           Z
 ---------------------------------------------------------------------
      1          6           0        0.000000    0.000000    0.000000
      2          1           0        0.000000    0.000000    1.078200
      3          1           0        0.934011    0.000000   -0.538645
      4          1           0       -0.933548   -0.003135   -0.539437
      5          6           0        0.003761   -1.999996    0.001481
      6          1           0       -0.929747   -2.002542    0.540992
      7          1           0        0.937484   -1.998882    0.540625
      8          1           0        0.003683   -2.001699   -1.076717
 ---------------------------------------------------------------------

 Alpha  occ. eigenvalues --  -10.28872 -10.28865  -0.81900  -0.71409  -0.53045
 Alpha  occ. eigenvalues --   -0.53041  -0.46651  -0.46647  -0.32207
 Alpha virt. eigenvalues --    0.03286   0.04420   0.04522   0.04523   0.07141
 Alpha virt. eigenvalues --    0.07141   0.08942   0.10171   0.11495   0.11496
 Alpha virt. eigenvalues --    0.12955   0.14105   0.14106   0.15127   0.17562

  Beta  occ. eigenvalues --  -10.28872 -10.28865  -0.81900  -0.71409  -0.53045
  Beta  occ. eigenvalues --   -0.53041  -0.46651  -0.46647  -0.32207
  Beta virt. eigenvalues --    0.03286   0.04420   0.04522   0.04523   0.07141
  Beta virt. eigenvalues --    0.07141   0.08942   0.10171   0.11495   0.11496
  Beta virt. eigenvalues --    0.12955   0.14105   0.14106   0.15127   0.17562

 Mulliken charges and spin densities:
               1          2
     1  C   -1.030185   0.000000
     2  H    0.343363  -0.000000
     3  H    0.343491  -0.000000
     4  H    0.343465  -0.000000
     5  C   -1.030568   0.000000
     6  H    0.343473  -0.000000
     7  H    0.343483  -0.000000
     8  H    0.343478  -0.000000
 Sum of Mulliken charges =  -0.00000   0.00000

 Dipole moment (field-independent basis, Debye):
    X=              0.0000    Y=             -0.0051    Z=              0.0002  Tot=              0.0051
 Quadrupole moment (field-independent basis, Debye-Ang):
   XX=            -14.2509   YY=            -18.9572   ZZ=            -14.2497
   XY=              0.0085   XZ=              0.0006   YZ=              0.0035

 Normal termination of Gaussian 09 at Sat May 27 09:24:52 2023.
