 Gaussian 09, Revision D.01,
 Gaussian 09:  EM64L-G09RevD.01 24-Apr-2013

 ----------------------------------------------------------------------
 # uwb97xd/aug-cc-pvtz opt(internal,maxcycle=100) # int=ultrafine nosym
  freq guess(mix,always)
 ----------------------------------------------------------------------

 ------
 geom 0
 ------
 Symbolic Z-matrix:
 Charge =  0 Multiplicity = 2

 SCF Done:  E(UwB97XD) =  -39.8391758254     A.U. after   12 cycles
 Optimization completed.
    -- Stationary point found.
 Normal termination of Gaussian 09 at Wed May 24 13:57:12 2023.

 ----------------------------------------------------------------------
 #N Geom=AllCheck Guess=TCheck SCRF=Check GenChk UwB97XD/Aug-CC-pVTZ Fr
 eq
 ----------------------------------------------------------------------

 Structure from the checkpoint file:  "tmp.chk"
 ------
 geom 0
 ------
 Charge =  0 Multiplicity = 2

                          Input orientation:
 ---------------------------------------------------------------------
 Center     Atomic      Atomic             Coordinates (Angstroms)
 Number     Number       Type             X           Y           Z
 ---------------------------------------------------------------------
      1          6           0        0.000000    0.000000    0.000000
      2          1           0        0.000000    0.000000    1.078200
      3          1           0        0.934011    0.000000   -0.538645
      4          1           0       -0.933548   -0.003135   -0.539437
 ---------------------------------------------------------------------

 SCF Done:  E(UwB97XD) =  -39.8391758254     A.U. after    1 cycles

 Alpha  occ. eigenvalues --  -10.29562  -0.78676  -0.50921  -0.50913  -0.31505
 Alpha virt. eigenvalues --    0.03022   0.04910   0.04911   0.09094   0.13055
 Alpha virt. eigenvalues --    0.13057   0.13242   0.20089   0.20090   0.21811
 Alpha virt. eigenvalues --    0.25913   0.25915   0.31999   0.32377   0.32379

  Beta  occ. eigenvalues --  -10.28441  -0.74176  -0.49696  -0.49688
  Beta virt. eigenvalues --   -0.00037   0.04418   0.05671   0.05672   0.13995
  Beta virt. eigenvalues --    0.13997   0.14292   0.14324   0.20350   0.20350
  Beta virt. eigenvalues --    0.24098   0.26487   0.26489   0.33244   0.33247

 Mulliken charges and spin densities:
               1          2
     1  C   -1.047405   1.025050
     2  H    0.349136  -0.008305
     3  H    0.349127  -0.008351
     4  H    0.349142  -0.008395
 Sum of Mulliken charges =  -0.00000   1.00000

 Dipole moment (field-independent basis, Debye):
    X=              0.0001    Y=             -0.0022    Z=              0.0000  Tot=              0.0022
 Quadrupole moment (field-independent basis, Debye-Ang):
   XX=             -7.1896   YY=             -9.0863   ZZ=             -7.1900
   XY=              0.0032   XZ=              0.0009   YZ=              0.0018

  Exact polarizability:  16.055  -0.001  16.394   0.000  -0.000  16.049
 Approx polarizability:  14.636   0.001  13.748   0.001   0.001  14.636

                      1                      2                      3
                      A                      A                      A
 Frequencies --    527.1571              1409.5898              1409.9026
 Red. masses --      1.2356                 1.1019                 1.1019
 Frc consts  --      0.2023                 1.2900                 1.2905
 IR Inten    --   79.75                  2.974                  2.967

                      4                      5                      6
                      A                      A                      A
 Frequencies --   3122.7037              3303.7683              3304.1816
 Red. masses --      1.0078                 1.1185                 1.1186
 Frc consts  --      5.7902                 7.1931                 7.1951
 IR Inten    --  0.2854E-03              4.460                  4.405

 - Thermochemistry -
 -------------------
 Temperature   298.150 Kelvin.  Pressure   1.00000 Atm.
 Atom     1 has atomic number  6 and mass  12.00000

 Molecular mass:    15.02348 amu.
 Principal axes and moments of inertia in atomic units:
                           1         2         3
     Eigenvalues --     6.27403   6.27769  12.55170
           X            0.78805  -0.61561  -0.00168
           Y            0.00192  -0.00027   1.00000
           Z            0.61561   0.78805  -0.00097
 This molecule is an asymmetric top.
 Rotational symmetry number  1.
 Rotational temperatures (Kelvin)     13.80514    13.79709     6.90057
 Rotational constants (GHZ):         287.65273   287.48509   143.78466
 Zero-point vibrational energy      78219.6 (Joules/Mol)
                                   18.69494 (Kcal/Mol)
 Warning -- explicit consideration of   1 degrees of freedom as
           vibrations may cause significant error
 Vibrational temperatures:    758.46  2028.08  2028.53  4492.87  4753.38
          (Kelvin)           4753.97

 Zero-point correction=                           0.029792 (Hartree/Particle)
 Thermal correction to Energy=                    0.032844
 Thermal correction to Enthalpy=                  0.033788
 Thermal correction to Gibbs Free Energy=         0.010013
 Sum of electronic and zero-point Energies=            -39.809384
 Sum of electronic and thermal Energies=               -39.806332
 Sum of electronic and thermal Enthalpies=             -39.805388
 Sum of electronic and thermal Free Energies=          -39.829163

                     E (Thermal)             CV                S
                      KCal/Mol        Cal/Mol-Kelvin    Cal/Mol-Kelvin
 Total                   20.610              7.356             50.040
 Electronic               0.000              0.000              1.377
 Translational            0.889              2.981             34.068
 Rotational               0.889              2.981             13.967
 Vibrational             18.832              1.395              0.628
 Vibration     1          0.882              1.190              0.594

 Normal termination of Gaussian 09 at Wed May 24 13:57:32 2023.
