 Gaussian 09, Revision D.01,
 Gaussian 09:  EM64L-G09RevD.01 24-Apr-2013

 ----------------------------------------------------------------------
 # uwb97xd/aug-cc-pvtz opt(internal,maxcycle=100) # int=ultrafine nosym
  freq
 ----------------------------------------------------------------------

 ------
 geom 0
 ------
 Symbolic Z-matrix:
 Charge =  0 Multiplicity = 1

 SCF Done:  E(UwB97XD) =  -79.8331756119     A.U. after    9 cycles
 SCF Done:  E(UwB97XD) =  -79.8332121629     A.U. after    7 cycles
 Optimization completed.
    -- Stationary point found.
 Normal termination of Gaussian 09 at Wed May 24 13:49:37 2023.

 ----------------------------------------------------------------------
 #N Geom=AllCheck Guess=TCheck SCRF=Check GenChk UwB97XD/Aug-CC-pVTZ Fr
 eq
 ----------------------------------------------------------------------

 Structure from the checkpoint file:  "tmp.chk"
 ------
 geom 0
 ------
 Charge =  0 Multiplicity = 1

                          Input orientation:
 ---------------------------------------------------------------------
 Center     Atomic      Atomic             Coordinates (Angstroms)
 Number     Number       Type             X           Y           Z
 ---------------------------------------------------------------------
      1          6           0        0.000000    0.000000    0.000000
      2          1           0        0.000000    0.000000    1.090246
      3          1           0        1.039055    0.000000   -0.330194
      4          1           0       -0.451226    0.935983   -0.330169
      5          6           0       -0.754882   -1.201808   -0.552234
      6          1           0       -1.794227   -1.201129   -0.223011
      7          1           0       -0.304300   -2.137800   -0.221243
      8          1           0       -0.753816   -1.202277   -1.642488
 ---------------------------------------------------------------------

 SCF Done:  E(UwB97XD) =  -79.8332121629     A.U. after    1 cycles

 Alpha  occ. eigenvalues --  -10.26996 -10.26973  -0.85233  -0.70995  -0.52154
 Alpha  occ. eigenvalues --   -0.52152  -0.45072  -0.42385  -0.42384
 Alpha virt. eigenvalues --    0.03411   0.04499   0.04629   0.04629   0.07085
 Alpha virt. eigenvalues --    0.07085   0.10391   0.12315   0.12322   0.12322
 Alpha virt. eigenvalues --    0.13327   0.14225   0.14225   0.17685   0.20255

  Beta  occ. eigenvalues --  -10.26996 -10.26973  -0.85233  -0.70995  -0.52154
  Beta  occ. eigenvalues --   -0.52152  -0.45072  -0.42385  -0.42384
  Beta virt. eigenvalues --    0.03411   0.04499   0.04629   0.04629   0.07085
  Beta virt. eigenvalues --    0.07085   0.10391   0.12315   0.12322   0.12322
  Beta virt. eigenvalues --    0.13327   0.14225   0.14225   0.17685   0.20255

 Mulliken charges and spin densities:
               1          2
     1  C   -0.771134   0.000000
     2  H    0.257023   0.000000
     3  H    0.256990   0.000000
     4  H    0.257094  -0.000000
     5  C   -0.771061  -0.000000
     6  H    0.256976  -0.000000
     7  H    0.257084  -0.000000
     8  H    0.257027   0.000000
 Sum of Mulliken charges =   0.00000  -0.00000

 Dipole moment (field-independent basis, Debye):
    X=              0.0000    Y=              0.0000    Z=             -0.0000  Tot=              0.0000
 Quadrupole moment (field-independent basis, Debye-Ang):
   XX=            -14.9767   YY=            -15.2481   ZZ=            -14.8944
   XY=             -0.2813   XZ=             -0.1295   YZ=             -0.2059

  Exact polarizability:  28.267   1.466  29.680   0.670   1.072  27.841
 Approx polarizability:  28.151   0.154  28.300   0.071   0.112  28.106

                      1                      2                      3
                      A                      A                      A
 Frequencies --    306.2144               831.4175               832.3728
 Red. masses --      1.0078                 1.0585                 1.0585
 Frc consts  --      0.0557                 0.4311                 0.4321
 IR Inten    --  0.1251E-04              4.029                  4.003

                      4                      5                      6
                      A                      A                      A
 Frequencies --   1014.9890              1226.0883              1226.3656
 Red. masses --      3.2003                 1.4702                 1.4699
 Frc consts  --      1.9425                 1.3022                 1.3025
 IR Inten    --  0.4358E-07             0.1704E-05             0.3010E-06

                      7                      8                      9
                      A                      A                      A
 Frequencies --   1411.8047              1431.7135              1508.9325
 Red. masses --      1.1983                 1.2642                 1.0172
 Frc consts  --      1.4072                 1.5268                 1.3645
 IR Inten    --   1.966                 0.1348E-05             0.5485E-02

                     10                     11                     12
                      A                      A                      A
 Frequencies --   1509.1727              1509.2876              1509.6143
 Red. masses --      1.0172                 1.0612                 1.0612
 Frc consts  --      1.3649                 1.4243                 1.4249
 IR Inten    --  0.4563E-02              10.13                  10.14

                     13                     14                     15
                      A                      A                      A
 Frequencies --   3049.5577              3050.7080              3106.7521
 Red. masses --      1.0341                 1.0370                 1.1016
 Frc consts  --      5.6661                 5.6864                 6.2647
 IR Inten    --   58.34                 0.1927E-01             0.4321E-04

                     16                     17                     18
                      A                      A                      A
 Frequencies --   3107.3586              3130.3434              3130.9369
 Red. masses --      1.1016                 1.1029                 1.1029
 Frc consts  --      6.2671                 6.3674                 6.3698
 IR Inten    --  0.7572E-03              61.25                  61.11

 - Thermochemistry -
 -------------------
 Temperature   298.150 Kelvin.  Pressure   1.00000 Atm.
 Atom     1 has atomic number  6 and mass  12.00000

 Molecular mass:    30.04695 amu.
 Principal axes and moments of inertia in atomic units:
                           1         2         3
     Eigenvalues --    22.29388  89.73029  89.73116
           X            0.49569  -0.39989   0.77096
           Y            0.78918  -0.16324  -0.59208
           Z            0.36262   0.90191   0.23467
 This molecule is an asymmetric top.
 Rotational symmetry number  1.
 Rotational temperatures (Kelvin)      3.88509     0.96527     0.96526
 Rotational constants (GHZ):          80.95231    20.11295    20.11276
 Zero-point vibrational energy     196747.6 (Joules/Mol)
                                   47.02380 (Kcal/Mol)
 Warning -- explicit consideration of   1 degrees of freedom as
           vibrations may cause significant error
 Vibrational temperatures:    440.57  1196.22  1197.60  1460.34  1764.07
          (Kelvin)           1764.46  2031.27  2059.91  2171.01  2171.36
                             2171.53  2172.00  4387.63  4389.28  4469.92
                             4470.79  4503.86  4504.71

 Zero-point correction=                           0.074937 (Hartree/Particle)
 Thermal correction to Energy=                    0.078419
 Thermal correction to Enthalpy=                  0.079363
 Thermal correction to Gibbs Free Energy=         0.051831
 Sum of electronic and zero-point Energies=            -79.758275
 Sum of electronic and thermal Energies=               -79.754793
 Sum of electronic and thermal Enthalpies=             -79.753849
 Sum of electronic and thermal Free Energies=          -79.781381

                     E (Thermal)             CV                S
                      KCal/Mol        Cal/Mol-Kelvin    Cal/Mol-Kelvin
 Total                   49.209             10.048             57.946
 Electronic               0.000              0.000              0.000
 Translational            0.889              2.981             36.134
 Rotational               0.889              2.981             19.823
 Vibrational             47.431              4.086              1.989
 Vibration     1          0.697              1.662              1.383

 Optimization completed.
    -- Stationary point found.
 Normal termination of Gaussian 09 at Wed May 24 13:53:11 2023.
