 Gaussian 09, Revision D.01,
 Gaussian 09:  EM64L-G09RevD.01 24-Apr-2013

 ----------------------------------------------------------------------
 # uwb97xd/aug-cc-pvtz opt=(noeig,intern,maxcyc=50) # int=ultrafine nos
 ym freq iop(7/33=1) guess=(mix,always)
 ----------------------------------------------------------------------

 ------
 geom 0
 ------
 Symbolic Z-matrix:
 Charge =  0 Multiplicity = 1

 SCF Done:  E(UwB97XD) =  -79.7799061388     A.U. after   12 cycles
 SCF Done:  E(UwB97XD) =  -79.7799419582     A.U. after   12 cycles
 Optimization completed.
    -- Stationary point found.
 Normal termination of Gaussian 09 at Sat May 27 08:35:12 2023.

 ----------------------------------------------------------------------
 #N Geom=AllCheck Guess=TCheck SCRF=Check Test GenChk UwB97XD/Aug-CC-pV
 TZ Freq
 ----------------------------------------------------------------------

 Structure from the checkpoint file:  "tmp.chk"
 ------
 geom 0
 ------
 Charge =  0 Multiplicity = 1

                          Input orientation:
 ---------------------------------------------------------------------
 Center     Atomic      Atomic             Coordinates (Angstroms)
 Number     Number       Type             X           Y           Z
 ---------------------------------------------------------------------
      1          6           0        0.000000    0.000000    0.000000
      2          1           0        0.000000    0.000000    1.083411
      3          1           0        0.998770    0.000000   -0.419914
      4          1           0       -0.631469    0.773816   -0.419918
      5          6           0       -0.824918   -1.737634   -0.547849
      6          1           0       -1.823777   -1.737400   -0.128263
      7          1           0       -0.193304   -2.511375   -0.127995
      8          1           0       -0.824546   -1.738012   -1.631300
 ---------------------------------------------------------------------

 SCF Done:  E(UwB97XD) =  -79.7799419582     A.U. after    1 cycles

 Alpha  occ. eigenvalues --  -10.29329 -10.29326  -0.79781  -0.73363  -0.50329
 Alpha  occ. eigenvalues --   -0.50325  -0.46204  -0.46200  -0.36449
 Alpha virt. eigenvalues --    0.03385   0.04311   0.04669   0.04672   0.06961
 Alpha virt. eigenvalues --    0.06963   0.10128   0.10438   0.12416   0.12417
 Alpha virt. eigenvalues --    0.13311   0.14405   0.14407   0.15676   0.17621

  Beta  occ. eigenvalues --  -10.29329 -10.29326  -0.79781  -0.73363  -0.50329
  Beta  occ. eigenvalues --   -0.50325  -0.46204  -0.46200  -0.36449
  Beta virt. eigenvalues --    0.03385   0.04311   0.04669   0.04672   0.06961
  Beta virt. eigenvalues --    0.06963   0.10128   0.10438   0.12416   0.12417
  Beta virt. eigenvalues --    0.13311   0.14405   0.14407   0.15676   0.17621

 Mulliken charges and spin densities:
               1          2
     1  C   -0.864188   0.000000
     2  H    0.288044  -0.000000
     3  H    0.288089  -0.000000
     4  H    0.288054  -0.000000
     5  C   -0.864188   0.000000
     6  H    0.288093  -0.000000
     7  H    0.288065  -0.000000
     8  H    0.288030  -0.000000
 Sum of Mulliken charges =  -0.00000  -0.00000

 Dipole moment (field-independent basis, Debye):
    X=              0.0001    Y=             -0.0000    Z=             -0.0001  Tot=              0.0001
 Quadrupole moment (field-independent basis, Debye-Ang):
   XX=            -14.8389   YY=            -15.2401   ZZ=            -14.7731
   XY=             -0.2456   XZ=             -0.0781   YZ=             -0.1631

  Exact polarizability:  31.397   6.252  41.616   1.969   4.153  29.736
 Approx polarizability:  31.363   5.085  39.660   1.603   3.377  30.014

 ******    1 imaginary frequencies (negative Signs) ******

                      1                      2                      3
                      A                      A                      A
 Frequencies --    -52.2605               140.7274               674.2241
 Red. masses --      6.1481                 1.0078                 1.0361
 Frc consts  --      0.0099                 0.0118                 0.2775
 IR Inten    --  0.2998E-06             0.3852E-03              5.555

                      4                      5                      6
                      A                      A                      A
 Frequencies --    676.0864               994.9208               995.4065
 Red. masses --      1.0361                 1.2405                 1.2403
 Frc consts  --      0.2790                 0.7235                 0.7241
 IR Inten    --   5.537                 0.1128E-05             0.5190E-06

                      7                      8                      9
                      A                      A                      A
 Frequencies --   1183.6656              1187.1161              1462.3401
 Red. masses --      1.0803                 1.2157                 1.0784
 Frc consts  --      0.8918                 1.0094                 1.3587
 IR Inten    --  0.5744E-06              5.256                  6.691

                     10                     11                     12
                      A                      A                      A
 Frequencies --   1462.4463              1468.8717              1468.9366
 Red. masses --      1.0784                 1.0577                 1.0578
 Frc consts  --      1.3589                 1.3445                 1.3448
 IR Inten    --   6.715                 0.1417E-02             0.1364E-02

                     13                     14                     15
                      A                      A                      A
 Frequencies --   3096.5409              3097.3380              3221.7080
 Red. masses --      1.0209                 1.0214                 1.1128
 Frc consts  --      5.7676                 5.7735                 6.8050
 IR Inten    --  0.7119E-04              33.65                 0.3950E-01

                     16                     17                     18
                      A                      A                      A
 Frequencies --   3222.0274              3226.1482              3226.4549
 Red. masses --      1.1128                 1.1095                 1.1095
 Frc consts  --      6.8066                 6.8035                 6.8050
 IR Inten    --  0.4789E-01              28.49                  28.48

 - Thermochemistry -
 -------------------
 Temperature   298.150 Kelvin.  Pressure   1.00000 Atm.
 Atom     1 has atomic number  6 and mass  12.00000

 Molecular mass:    30.04695 amu.
 Principal axes and moments of inertia in atomic units:
                           1         2         3
     Eigenvalues --    23.44525 133.74366 133.74635
           X            0.41245  -0.53236   0.73925
           Y            0.86883  -0.01413  -0.49492
           Z            0.27392   0.84640   0.45670
 This molecule is an asymmetric top.
 Rotational symmetry number  1.
 Rotational temperatures (Kelvin)      3.69430     0.64761     0.64760
 Rotational constants (GHZ):          76.97684    13.49403    13.49376
    1 imaginary frequencies ignored.
 Zero-point vibrational energy     184254.6 (Joules/Mol)
                                   44.03790 (Kcal/Mol)
 Warning -- explicit consideration of   1 degrees of freedom as
           vibrations may cause significant error
 Vibrational temperatures:    202.48   970.06   972.74  1431.47  1432.17
          (Kelvin)           1703.03  1707.99  2103.98  2104.13  2113.38
                             2113.47  4455.23  4456.37  4635.31  4635.77
                             4641.70  4642.14

 Zero-point correction=                           0.070179 (Hartree/Particle)
 Thermal correction to Energy=                    0.074050
 Thermal correction to Enthalpy=                  0.074995
 Thermal correction to Gibbs Free Energy=         0.046201
 Sum of electronic and zero-point Energies=            -79.709763
 Sum of electronic and thermal Energies=               -79.705892
 Sum of electronic and thermal Enthalpies=             -79.704947
 Sum of electronic and thermal Free Energies=          -79.733741

                     E (Thermal)             CV                S
                      KCal/Mol        Cal/Mol-Kelvin    Cal/Mol-Kelvin
 Total                   46.467             11.162             60.601
 Electronic               0.000              0.000              0.000
 Translational            0.889              2.981             36.134
 Rotational               0.889              2.981             20.667
 Vibrational             44.690              5.200              3.801
 Vibration     1          0.615              1.913              2.794

 Normal termination of Gaussian 09 at Sat May 27 08:36:59 2023.
