 Gaussian 09, Revision D.01,
 Gaussian 09:  EM64L-G09RevD.01 24-Apr-2013

 ----------------------------------------------------------------------
 # uwb97xd/aug-cc-pvtz opt=(noeig,intern,maxcyc=50) # int=ultrafine nos
 ym iop(7/33=1) guess=(mix,always)
 ----------------------------------------------------------------------

 ------
 geom 0
 ------
 Symbolic Z-matrix:
 Charge =  0 Multiplicity = 1

 SCF Done:  E(UwB97XD) =  -40.3762305784     A.U. after   16 cycles
 SCF Done:  E(UwB97XD) =  -40.3804559669     A.U. after   18 cycles
 SCF Done:  E(UwB97XD) =  -40.3823712238     A.U. after   19 cycles
 SCF Done:  E(UwB97XD) =  -40.3823736979     A.U. after   19 cycles
 Optimization completed.
    -- Stationary point found.

                         Z-Matrix orientation:
 ---------------------------------------------------------------------
 Center     Atomic      Atomic             Coordinates (Angstroms)
 Number     Number       Type             X           Y           Z
 ---------------------------------------------------------------------
      1          6           0        0.000000    0.000000    0.000000
      2          1           0        0.000000    0.000000    1.078200
      3          1           0        0.934011    0.000000   -0.538645
      4          1           0       -0.933548   -0.003135   -0.539437
      5          1           0        0.004850   -1.999994   -0.000782
 ---------------------------------------------------------------------

 Alpha  occ. eigenvalues --  -10.33672  -0.79492  -0.52463  -0.52455  -0.34191
 Alpha virt. eigenvalues --   -0.01047   0.03983   0.05050   0.05051   0.07858
 Alpha virt. eigenvalues --    0.11158   0.12555   0.12557   0.13726   0.19303
 Alpha virt. eigenvalues --    0.19307   0.21403   0.21409   0.28191   0.30754

  Beta  occ. eigenvalues --  -10.33456  -0.78564  -0.52219  -0.52211  -0.34843
  Beta virt. eigenvalues --   -0.00710   0.04125   0.05054   0.05055   0.07214
  Beta virt. eigenvalues --    0.11559   0.12604   0.12605   0.13859   0.19355
  Beta virt. eigenvalues --    0.19359   0.21475   0.21481   0.28269   0.30807

 Mulliken charges and spin densities:
               1          2
     1  C   -1.037367   0.221166
     2  H    0.368837  -0.002844
     3  H    0.369157  -0.002868
     4  H    0.369029  -0.002867
     5  H   -0.069656  -0.212587
 Sum of Mulliken charges =  -0.00000  -0.00000

 Dipole moment (field-independent basis, Debye):
    X=             -0.0024    Y=              1.1268    Z=              0.0000  Tot=              1.1268
 Quadrupole moment (field-independent basis, Debye-Ang):
   XX=             -8.6028   YY=            -11.6220   ZZ=             -8.6032
   XY=              0.0051   XZ=              0.0009   YZ=              0.0029

 Normal termination of Gaussian 09 at Sat Jun  3 08:59:34 2023.
