 Gaussian 09, Revision D.01,
 Gaussian 09:  EM64L-G09RevD.01 24-Apr-2013

 ----------------------------------------------------------------------
 # uwb97xd/aug-cc-pvtz opt=(noeig,intern,maxcyc=50) # int=ultrafine nos
 ym iop(7/33=1) guess=(mix,always)
 ----------------------------------------------------------------------

 ------
 geom 0
 ------
 Symbolic Z-matrix:
 Charge =  0 Multiplicity = 1

 SCF Done:  E(UwB97XD) =  -40.3419360776     A.U. after   20 cycles

 Alpha  occ. eigenvalues --  -10.29651  -0.78724  -0.50970  -0.50962  -0.31565
 Alpha virt. eigenvalues --    0.03352   0.05286   0.05292   0.07394   0.11877
 Alpha virt. eigenvalues --    0.13208   0.13210   0.13356   0.15632   0.20069
 Alpha virt. eigenvalues --    0.20073   0.24173   0.24175   0.27473   0.31945

  Beta  occ. eigenvalues --  -10.28537  -0.74243  -0.49751  -0.49743  -0.40133
  Beta virt. eigenvalues --   -0.00012   0.04197   0.05301   0.05305   0.06377
  Beta virt. eigenvalues --    0.13414   0.13421   0.13567   0.14895   0.19780
  Beta virt. eigenvalues --    0.19791   0.20248   0.20252   0.23038   0.28803

 Mulliken charges and spin densities:
               1          2
     1  C   -1.063663   1.029542
     2  H    0.353315  -0.010504
     3  H    0.353266  -0.010594
     4  H    0.353412  -0.010495
     5  H    0.003670  -0.997948
 Sum of Mulliken charges =  -0.00000   0.00000

 Dipole moment (field-independent basis, Debye):
    X=              0.0003    Y=              0.0363    Z=              0.0001  Tot=              0.0363
 Quadrupole moment (field-independent basis, Debye-Ang):
   XX=             -8.6155   YY=            -10.6144   ZZ=             -8.6160
   XY=              0.0025   XZ=              0.0009   YZ=              0.0016

 Optimization completed.
    -- Stationary point found.

                         Z-Matrix orientation:
 ---------------------------------------------------------------------
 Center     Atomic      Atomic             Coordinates (Angstroms)
 Number     Number       Type             X           Y           Z
 ---------------------------------------------------------------------
      1          6           0        0.000000    0.000000    0.000000
      2          1           0        0.000000    0.000000    1.078200
      3          1           0        0.934011    0.000000   -0.538645
      4          1           0       -0.933548   -0.003135   -0.539437
      5          1           0       -0.018390   -3.399943   -0.007168
 ---------------------------------------------------------------------

 Normal termination of Gaussian 09 at Sat Jun  3 08:59:55 2023.
