 Gaussian 09, Revision D.01,
 Gaussian 09:  EM64L-G09RevD.01 24-Apr-2013

 ----------------------------------------------------------------------
 # uwb97xd/aug-cc-pvtz opt(internal,maxcycle=100) # int=ultrafine nosym
  freq
 ----------------------------------------------------------------------

 ------
 geom 0
 ------
 Symbolic Z-matrix:
 Charge =  0 Multiplicity = 1

 SCF Done:  E(UwB97XD) =  -40.5200491759     A.U. after    9 cycles
 SCF Done:  E(UwB97XD) =  -40.5200696086     A.U. after    6 cycles
 Optimization completed.
    -- Stationary point found.
 Normal termination of Gaussian 09 at Fri Jun  2 18:07:59 2023.

 ----------------------------------------------------------------------
 #N Geom=AllCheck Guess=TCheck SCRF=Check GenChk UwB97XD/Aug-CC-pVTZ Fr
 eq
 ----------------------------------------------------------------------

 Structure from the checkpoint file:  "tmp.chk"
 ------
 geom 0
 ------
 Charge =  0 Multiplicity = 1

                          Input orientation:
 ---------------------------------------------------------------------
 Center     Atomic      Atomic             Coordinates (Angstroms)
 Number     Number       Type             X           Y           Z
 ---------------------------------------------------------------------
      1          6           0        0.000000    0.000000    0.000000
      2          1           0        0.000000    0.000000    1.087788
      3          1           0        1.025547    0.000000   -0.362681
      4          1           0       -0.512918    0.888136   -0.362567
      5          1           0       -0.512812   -0.888176   -0.362629
 ---------------------------------------------------------------------

 SCF Done:  E(UwB97XD) =  -40.5200696086     A.U. after    1 cycles

 Alpha  occ. eigenvalues --  -10.26360  -0.79189  -0.47663  -0.47662  -0.47660
 Alpha virt. eigenvalues --    0.03299   0.05355   0.05355   0.05355   0.12621
 Alpha virt. eigenvalues --    0.12622   0.12622   0.13280   0.20529   0.20529
 Alpha virt. eigenvalues --    0.20530   0.21704   0.21705   0.31569   0.31569

  Beta  occ. eigenvalues --  -10.26360  -0.79189  -0.47663  -0.47662  -0.47660
  Beta virt. eigenvalues --    0.03299   0.05355   0.05355   0.05355   0.12621
  Beta virt. eigenvalues --    0.12622   0.12622   0.13280   0.20529   0.20529
  Beta virt. eigenvalues --    0.20530   0.21704   0.21705   0.31569   0.31569

 Mulliken charges and spin densities:
               1          2
     1  C   -1.075111   0.000000
     2  H    0.268726   0.000000
     3  H    0.268738   0.000000
     4  H    0.268825   0.000000
     5  H    0.268822   0.000000
 Sum of Mulliken charges =  -0.00000   0.00000

 Dipole moment (field-independent basis, Debye):
    X=             -0.0000    Y=             -0.0000    Z=             -0.0000  Tot=              0.0000
 Quadrupole moment (field-independent basis, Debye-Ang):
   XX=             -8.3614   YY=             -8.3618   ZZ=             -8.3615
   XY=             -0.0001   XZ=             -0.0001   YZ=              0.0001

  Exact polarizability:  16.813  -0.000  16.814  -0.001   0.000  16.812
 Approx polarizability:  16.012  -0.000  16.012   0.000   0.000  16.012

                      1                      2                      3
                      A                      A                      A
 Frequencies --   1341.0614              1341.5933              1341.6264
 Red. masses --      1.1792                 1.1792                 1.1792
 Frc consts  --      1.2495                 1.2505                 1.2506
 IR Inten    --   13.37                  13.37                  13.36

                      4                      5                      6
                      A                      A                      A
 Frequencies --   1562.6707              1563.0081              3043.5729
 Red. masses --      1.0078                 1.0078                 1.0078
 Frc consts  --      1.4500                 1.4506                 5.5005
 IR Inten    --  0.9450E-06             0.4863E-04             0.1005E-03

                      7                      8                      9
                      A                      A                      A
 Frequencies --   3161.5872              3161.8800              3161.9569
 Red. masses --      1.1015                 1.1014                 1.1015
 Frc consts  --      6.4868                 6.4878                 6.4883
 IR Inten    --   21.82                  21.78                  21.85

 - Thermochemistry -
 -------------------
 Temperature   298.150 Kelvin.  Pressure   1.00000 Atm.
 Atom     1 has atomic number  6 and mass  12.00000

 Molecular mass:    16.03130 amu.
 Principal axes and moments of inertia in atomic units:
                           1         2         3
     Eigenvalues --    11.35619  11.35651  11.35714
           X            0.75265   0.59292   0.28629
           Y           -0.41648   0.09196   0.90448
           Z           -0.50996   0.79999  -0.31615
 This molecule is an asymmetric top.
 Rotational symmetry number  1.
 Rotational temperatures (Kelvin)      7.62702     7.62680     7.62637
 Rotational constants (GHZ):         158.92143   158.91683   158.90801
 Zero-point vibrational energy     117706.3 (Joules/Mol)
                                   28.13248 (Kcal/Mol)
 Vibrational temperatures:   1929.49  1930.25  1930.30  2248.33  2248.82
          (Kelvin)           4379.02  4548.81  4549.23  4549.35

 Zero-point correction=                           0.044832 (Hartree/Particle)
 Thermal correction to Energy=                    0.047700
 Thermal correction to Enthalpy=                  0.048645
 Thermal correction to Gibbs Free Energy=         0.025176
 Sum of electronic and zero-point Energies=            -40.475238
 Sum of electronic and thermal Energies=               -40.472369
 Sum of electronic and thermal Enthalpies=             -40.471425
 Sum of electronic and thermal Free Energies=          -40.494894

                     E (Thermal)             CV                S
                      KCal/Mol        Cal/Mol-Kelvin    Cal/Mol-Kelvin
 Total                   29.932              6.469             49.394
 Electronic               0.000              0.000              0.000
 Translational            0.889              2.981             34.261
 Rotational               0.889              2.981             15.046
 Vibrational             28.155              0.507              0.087

 Optimization completed.
    -- Stationary point found.
 Normal termination of Gaussian 09 at Fri Jun  2 18:08:22 2023.
