 Gaussian 09, Revision D.01,
 Gaussian 09:  EM64L-G09RevD.01 24-Apr-2013

 ----------------------------------------------------------------------
 # uwb97xd/aug-cc-pvtz opt=(noeig,intern,maxcyc=50) # int=ultrafine nos
 ym freq iop(7/33=1) guess=(mix,always)
 ----------------------------------------------------------------------

 ------
 geom 0
 ------
 Symbolic Z-matrix:
 Charge =  0 Multiplicity = 1

 SCF Done:  E(UwB97XD) =  -40.3400387938     A.U. after   19 cycles
 SCF Done:  E(UwB97XD) =  -40.3407870330     A.U. after   21 cycles
 SCF Done:  E(UwB97XD) =  -40.3416715299     A.U. after   16 cycles
 SCF Done:  E(UwB97XD) =  -40.3418447893     A.U. after   19 cycles
 SCF Done:  E(UwB97XD) =  -40.3419322974     A.U. after   19 cycles
 SCF Done:  E(UwB97XD) =  -40.3419379431     A.U. after   20 cycles
 SCF Done:  E(UwB97XD) =  -40.3419381850     A.U. after   20 cycles
 SCF Done:  E(UwB97XD) =  -40.3419383441     A.U. after   19 cycles
 Optimization completed.
    -- Stationary point found.
 Normal termination of Gaussian 09 at Sat Jun  3 08:54:35 2023.

 ----------------------------------------------------------------------
 #N Geom=AllCheck Guess=TCheck SCRF=Check Test GenChk UwB97XD/Aug-CC-pV
 TZ Freq
 ----------------------------------------------------------------------

 Structure from the checkpoint file:  "tmp.chk"
 ------
 geom 0
 ------
 Charge =  0 Multiplicity = 1

                          Input orientation:
 ---------------------------------------------------------------------
 Center     Atomic      Atomic             Coordinates (Angstroms)
 Number     Number       Type             X           Y           Z
 ---------------------------------------------------------------------
      1          6           0        0.000000    0.000000    0.000000
      2          1           0        0.000000    0.000000    1.078276
      3          1           0        0.933820    0.000000   -0.539152
      4          1           0       -0.933652    0.017352   -0.539161
      5          1           0       -0.018391   -3.399943   -0.007168
 ---------------------------------------------------------------------

 SCF Done:  E(UwB97XD) =  -40.3419383441     A.U. after    1 cycles

 Alpha  occ. eigenvalues --  -10.29654  -0.78722  -0.50966  -0.50963  -0.31566
 Alpha virt. eigenvalues --    0.03350   0.05281   0.05286   0.07391   0.11885
 Alpha virt. eigenvalues --    0.13210   0.13213   0.13356   0.15631   0.20068
 Alpha virt. eigenvalues --    0.20071   0.24172   0.24173   0.27451   0.31972

  Beta  occ. eigenvalues --  -10.28540  -0.74242  -0.49747  -0.49744  -0.40122
  Beta virt. eigenvalues --   -0.00016   0.04194   0.05305   0.05307   0.06378
  Beta virt. eigenvalues --    0.13406   0.13410   0.13571   0.14873   0.19786
  Beta virt. eigenvalues --    0.19794   0.20248   0.20250   0.23040   0.28808

 Mulliken charges and spin densities:
               1          2
     1  C   -1.063101   1.029702
     2  H    0.353196  -0.010514
     3  H    0.353141  -0.010617
     4  H    0.353075  -0.010671
     5  H    0.003688  -0.997900
 Sum of Mulliken charges =   0.00000   0.00000

 Dipole moment (field-independent basis, Debye):
    X=              0.0003    Y=              0.0510    Z=              0.0001  Tot=              0.0510
 Quadrupole moment (field-independent basis, Debye-Ang):
   XX=             -8.6164   YY=            -10.6156   ZZ=             -8.6158
   XY=             -0.0181   XZ=             -0.0001   YZ=             -0.0103

  Exact polarizability:  20.791   0.024  25.156   0.000   0.010  20.784
 Approx polarizability:  17.947  -0.004  17.987  -0.000  -0.003  17.947

 ******    1 imaginary frequencies (negative Signs) ******

                      1                      2                      3
                      A                      A                      A
 Frequencies --   -199.7031               122.5693               137.3594
 Red. masses --      1.0672                 1.0147                 1.0148
 Frc consts  --      0.0251                 0.0090                 0.0113
 IR Inten    --   2.743                 0.6154E-03             0.5125E-03

                      4                      5                      6
                      A                      A                      A
 Frequencies --    532.6315              1409.6658              1409.7866
 Red. masses --      1.2211                 1.1019                 1.1018
 Frc consts  --      0.2041                 1.2901                 1.2902
 IR Inten    --   83.10                  2.910                  2.904

                      7                      8                      9
                      A                      A                      A
 Frequencies --   3122.3353              3303.5376              3303.7908
 Red. masses --      1.0078                 1.1186                 1.1185
 Frc consts  --      5.7889                 7.1924                 7.1933
 IR Inten    --  0.2434E-01              3.898                  3.865

 - Thermochemistry -
 -------------------
 Temperature   298.150 Kelvin.  Pressure   1.00000 Atm.
 Atom     1 has atomic number  6 and mass  12.00000

 Molecular mass:    16.03130 amu.
 Principal axes and moments of inertia in atomic units:
                           1         2         3
     Eigenvalues --    12.55310  45.29231  45.29320
           X            0.00467  -0.08516   0.99636
           Y            0.99999  -0.00108  -0.00478
           Z            0.00148   0.99637   0.08516
 This molecule is an asymmetric top.
 Rotational symmetry number  1.
 Rotational temperatures (Kelvin)      6.89979     1.91233     1.91229
 Rotational constants (GHZ):         143.76855    39.84652    39.84574
    1 imaginary frequencies ignored.
 Zero-point vibrational energy      79800.9 (Joules/Mol)
                                   19.07288 (Kcal/Mol)
 Warning -- explicit consideration of   3 degrees of freedom as
           vibrations may cause significant error
 Vibrational temperatures:    176.35   197.63   766.34  2028.19  2028.37
          (Kelvin)           4492.34  4753.05  4753.41

 Zero-point correction=                           0.030395 (Hartree/Particle)
 Thermal correction to Energy=                    0.034800
 Thermal correction to Enthalpy=                  0.035745
 Thermal correction to Gibbs Free Energy=         0.007868
 Sum of electronic and zero-point Energies=            -40.311544
 Sum of electronic and thermal Energies=               -40.307138
 Sum of electronic and thermal Enthalpies=             -40.306194
 Sum of electronic and thermal Free Energies=          -40.334070

                     E (Thermal)             CV                S
                      KCal/Mol        Cal/Mol-Kelvin    Cal/Mol-Kelvin
 Total                   21.838             11.191             58.671
 Electronic               0.000              0.000              0.000
 Translational            0.889              2.981             34.261
 Rotational               0.889              2.981             17.894
 Vibrational             20.060              5.229              6.516
 Vibration     1          0.610              1.930              3.059
 Vibration     2          0.614              1.916              2.840
 Vibration     3          0.888              1.178              0.581

 Normal termination of Gaussian 09 at Sat Jun  3 08:54:53 2023.
