 Gaussian 09, Revision D.01,
 Gaussian 09:  EM64L-G09RevD.01 24-Apr-2013

 ----------------------------------------------------------------------
 # uwb97xd/aug-cc-pvtz opt=(noeig,intern,maxcyc=50) # int=ultrafine nos
 ym iop(7/33=1) guess=(mix,always)
 ----------------------------------------------------------------------

 ------
 geom 0
 ------
 Symbolic Z-matrix:
 Charge =  0 Multiplicity = 1

 SCF Done:  E(UwB97XD) =  -79.6940724541     A.U. after   18 cycles
 SCF Done:  E(UwB97XD) =  -79.7166158639     A.U. after   16 cycles
 SCF Done:  E(UwB97XD) =  -79.7245171607     A.U. after   16 cycles
 SCF Done:  E(UwB97XD) =  -79.7252318318     A.U. after   16 cycles
 SCF Done:  E(UwB97XD) =  -79.7252987506     A.U. after   16 cycles
 SCF Done:  E(UwB97XD) =  -79.7253174319     A.U. after   16 cycles
 SCF Done:  E(UwB97XD) =  -79.7253178099     A.U. after   16 cycles
 SCF Done:  E(UwB97XD) =  -79.7253179478     A.U. after   16 cycles
 Optimization completed.
    -- Stationary point found.

                         Z-Matrix orientation:
 ---------------------------------------------------------------------
 Center     Atomic      Atomic             Coordinates (Angstroms)
 Number     Number       Type             X           Y           Z
 ---------------------------------------------------------------------
      1          6           0        0.000000    0.000000    0.000000
      2          1           0        0.000000    0.000000    1.078200
      3          1           0        0.934011    0.000000   -0.538645
      4          1           0       -0.933548   -0.003135   -0.539437
      5          6           0        0.003612   -2.199996    0.002289
      6          1           0       -0.929955   -2.201935    0.541699
      7          1           0        0.937277   -2.199091    0.541532
      8          1           0        0.003649   -2.202097   -1.075909
 ---------------------------------------------------------------------

 Alpha  occ. eigenvalues --  -10.29539 -10.29534  -0.80043  -0.72934  -0.52068
 Alpha  occ. eigenvalues --   -0.52063  -0.47748  -0.47743  -0.30748
 Alpha virt. eigenvalues --    0.03283   0.03332   0.04562   0.04562   0.06759
 Alpha virt. eigenvalues --    0.07076   0.07076   0.10314   0.11605   0.11606
 Alpha virt. eigenvalues --    0.13001   0.14159   0.14160   0.14531   0.17058

  Beta  occ. eigenvalues --  -10.29539 -10.29534  -0.80043  -0.72934  -0.52068
  Beta  occ. eigenvalues --   -0.52063  -0.47748  -0.47743  -0.30748
  Beta virt. eigenvalues --    0.03283   0.03332   0.04562   0.04562   0.06759
  Beta virt. eigenvalues --    0.07076   0.07076   0.10314   0.11605   0.11606
  Beta virt. eigenvalues --    0.13001   0.14159   0.14160   0.14531   0.17058

 Mulliken charges and spin densities:
               1          2
     1  C   -1.065967   0.000000
     2  H    0.355344   0.000000
     3  H    0.355388  -0.000000
     4  H    0.355409  -0.000000
     5  C   -1.066790  -0.000000
     6  H    0.355557   0.000000
     7  H    0.355537   0.000000
     8  H    0.355522   0.000000
 Sum of Mulliken charges =  -0.00000  -0.00000

 Dipole moment (field-independent basis, Debye):
    X=              0.0001    Y=             -0.0046    Z=              0.0001  Tot=              0.0046
 Quadrupole moment (field-independent basis, Debye-Ang):
   XX=            -14.3178   YY=            -18.5952   ZZ=            -14.3165
   XY=              0.0067   XZ=              0.0006   YZ=              0.0039

 Normal termination of Gaussian 09 at Sat May 27 09:29:44 2023.
