 Gaussian 09, Revision D.01,
 Gaussian 09:  EM64L-G09RevD.01 24-Apr-2013

 ----------------------------------------------------------------------
 # uwb97xd/aug-cc-pvtz opt=(noeig,intern,maxcyc=50) # int=ultrafine nos
 ym freq iop(7/33=1) guess=(mix,always)
 ----------------------------------------------------------------------

 ------
 geom 0
 ------
 Symbolic Z-matrix:
 Charge =  0 Multiplicity = 1

 SCF Done:  E(UwB97XD) =  -79.7494017874     A.U. after   14 cycles
 SCF Done:  E(UwB97XD) =  -79.7500412652     A.U. after   14 cycles
 SCF Done:  E(UwB97XD) =  -79.7501476880     A.U. after   14 cycles
 Optimization completed.
    -- Stationary point found.
 Normal termination of Gaussian 09 at Sat May 27 08:43:40 2023.

 ----------------------------------------------------------------------
 #N Geom=AllCheck Guess=TCheck SCRF=Check Test GenChk UwB97XD/Aug-CC-pV
 TZ Freq
 ----------------------------------------------------------------------

 Structure from the checkpoint file:  "tmp.chk"
 ------
 geom 0
 ------
 Charge =  0 Multiplicity = 1

                          Input orientation:
 ---------------------------------------------------------------------
 Center     Atomic      Atomic             Coordinates (Angstroms)
 Number     Number       Type             X           Y           Z
 ---------------------------------------------------------------------
      1          6           0        0.000000    0.000000    0.000000
      2          1           0        0.000000    0.000000    1.081575
      3          1           0        0.983998    0.000000   -0.449172
      4          1           0       -0.696528    0.695003   -0.449273
      5          6           0       -0.816252   -1.974595   -0.524125
      6          1           0       -1.800257   -1.974203   -0.075202
      7          1           0       -0.118501   -2.669313   -0.076329
      8          1           0       -0.815884   -1.975582   -1.605802
 ---------------------------------------------------------------------

 SCF Done:  E(UwB97XD) =  -79.7501476880     A.U. after    1 cycles

 Alpha  occ. eigenvalues --  -10.29916 -10.29914  -0.78747  -0.74168  -0.50180
 Alpha  occ. eigenvalues --   -0.50166  -0.47295  -0.47281  -0.33748
 Alpha virt. eigenvalues --    0.03371   0.03751   0.04675   0.04676   0.06918
 Alpha virt. eigenvalues --    0.06919   0.07467   0.10465   0.12427   0.12430
 Alpha virt. eigenvalues --    0.13292   0.14361   0.14361   0.14645   0.16760

  Beta  occ. eigenvalues --  -10.29916 -10.29914  -0.78747  -0.74168  -0.50180
  Beta  occ. eigenvalues --   -0.50166  -0.47295  -0.47281  -0.33748
  Beta virt. eigenvalues --    0.03371   0.03751   0.04675   0.04676   0.06918
  Beta virt. eigenvalues --    0.06919   0.07467   0.10465   0.12427   0.12430
  Beta virt. eigenvalues --    0.13292   0.14361   0.14361   0.14645   0.16760

 Mulliken charges and spin densities:
               1          2
     1  C   -0.913379  -0.000000
     2  H    0.304549   0.000000
     3  H    0.304557   0.000000
     4  H    0.304283   0.000000
     5  C   -0.913378   0.000000
     6  H    0.304629  -0.000000
     7  H    0.304301  -0.000000
     8  H    0.304437  -0.000000
 Sum of Mulliken charges =  -0.00000  -0.00000

 Dipole moment (field-independent basis, Debye):
    X=              0.0004    Y=             -0.0001    Z=             -0.0003  Tot=              0.0005
 Quadrupole moment (field-independent basis, Debye-Ang):
   XX=            -14.7754   YY=            -15.2091   ZZ=            -14.7196
   XY=             -0.2176   XZ=             -0.0604   YZ=             -0.1390

  Exact polarizability:  32.722   9.029  50.829   2.389   5.790  30.521
 Approx polarizability:  32.897   8.495  49.943   2.252   5.455  30.837

 ******    1 imaginary frequencies (negative Signs) ******

                      1                      2                      3
                      A                      A                      A
 Frequencies --   -292.1969               103.8763               622.2602
 Red. masses --      6.3595                 1.0078                 1.0289
 Frc consts  --      0.3199                 0.0064                 0.2347
 IR Inten    --  0.5665E-05             0.6321E-03              7.971

                      4                      5                      6
                      A                      A                      A
 Frequencies --    623.4944               897.6577               898.1064
 Red. masses --      1.0289                 1.1865                 1.1867
 Frc consts  --      0.2357                 0.5633                 0.5640
 IR Inten    --   7.826                 0.2313E-04             0.7147E-05

                      7                      8                      9
                      A                      A                      A
 Frequencies --   1097.5557              1098.3350              1448.4702
 Red. masses --      1.2207                 1.0780                 1.0841
 Frc consts  --      0.8664                 0.7662                 1.3401
 IR Inten    --   14.71                 0.1058E-01              5.742

                     10                     11                     12
                      A                      A                      A
 Frequencies --   1449.1803              1455.1588              1455.8519
 Red. masses --      1.0841                 1.0701                 1.0703
 Frc consts  --      1.3414                 1.3351                 1.3366
 IR Inten    --   5.746                 0.2538E-01             0.1615E-01

                     13                     14                     15
                      A                      A                      A
 Frequencies --   3109.4183              3109.9067              3251.7237
 Red. masses --      1.0175                 1.0179                 1.1146
 Frc consts  --      5.7961                 5.8001                 6.9435
 IR Inten    --  0.1307E-01              28.89                  1.260

                     16                     17                     18
                      A                      A                      A
 Frequencies --   3252.2668              3253.3999              3253.9477
 Red. masses --      1.1140                 1.1125                 1.1120
 Frc consts  --      6.9424                 6.9377                 6.9369
 IR Inten    --   4.668                  14.73                  18.01

 - Thermochemistry -
 -------------------
 Temperature   298.150 Kelvin.  Pressure   1.00000 Atm.
 Atom     1 has atomic number  6 and mass  12.00000

 Molecular mass:    30.04695 amu.
 Principal axes and moments of inertia in atomic units:
                           1         2         3
     Eigenvalues --    23.82594 155.43704 155.44795
           X            0.37097  -0.54899   0.74900
           Y            0.89757   0.00508  -0.44084
           Z            0.23821   0.83582   0.49464
 This molecule is an asymmetric top.
 Rotational symmetry number  1.
 Rotational temperatures (Kelvin)      3.63527     0.55723     0.55719
 Rotational constants (GHZ):          75.74692    11.61075    11.60994
    1 imaginary frequencies ignored.
 Zero-point vibrational energy     181716.4 (Joules/Mol)
                                   43.43126 (Kcal/Mol)
 Warning -- explicit consideration of   1 degrees of freedom as
           vibrations may cause significant error
 Vibrational temperatures:    149.45   895.29   897.07  1291.53  1292.17
          (Kelvin)           1579.14  1580.26  2084.02  2085.04  2093.65
                             2094.64  4473.75  4474.46  4678.50  4679.28
                             4680.91  4681.70

 Zero-point correction=                           0.069212 (Hartree/Particle)
 Thermal correction to Energy=                    0.073251
 Thermal correction to Enthalpy=                  0.074195
 Thermal correction to Gibbs Free Energy=         0.044839
 Sum of electronic and zero-point Energies=            -79.680936
 Sum of electronic and thermal Energies=               -79.676897
 Sum of electronic and thermal Enthalpies=             -79.675953
 Sum of electronic and thermal Free Energies=          -79.705309

                     E (Thermal)             CV                S
                      KCal/Mol        Cal/Mol-Kelvin    Cal/Mol-Kelvin
 Total                   45.965             11.799             61.785
 Electronic               0.000              0.000              0.000
 Translational            0.889              2.981             36.134
 Rotational               0.889              2.981             20.981
 Vibrational             44.188              5.837              4.669
 Vibration     1          0.605              1.946              3.380

 Optimization completed.
    -- Stationary point found.
 Normal termination of Gaussian 09 at Sat May 27 08:45:29 2023.
