 Gaussian 09, Revision D.01,
 Gaussian 09:  EM64L-G09RevD.01 24-Apr-2013

 ----------------------------------------------------------------------
 # uwb97xd/aug-cc-pvtz opt=(noeig,intern,maxcyc=50) # int=ultrafine nos
 ym freq iop(7/33=1) guess=(mix,always)
 ----------------------------------------------------------------------

 ------
 geom 0
 ------
 Symbolic Z-matrix:
 Charge =  0 Multiplicity = 1

 SCF Done:  E(UwB97XD) =  -40.3880027732     A.U. after   21 cycles
 SCF Done:  E(UwB97XD) =  -40.3880201766     A.U. after   21 cycles
 SCF Done:  E(UwB97XD) =  -40.3880205810     A.U. after   21 cycles
 SCF Done:  E(UwB97XD) =  -40.3880206612     A.U. after   21 cycles
 Optimization completed.
    -- Stationary point found.
 Normal termination of Gaussian 09 at Sat Jun  3 08:50:47 2023.

 ----------------------------------------------------------------------
 #N Geom=AllCheck Guess=TCheck SCRF=Check Test GenChk UwB97XD/Aug-CC-pV
 TZ Freq
 ----------------------------------------------------------------------

 Structure from the checkpoint file:  "tmp.chk"
 ------
 geom 0
 ------
 Charge =  0 Multiplicity = 1

                          Input orientation:
 ---------------------------------------------------------------------
 Center     Atomic      Atomic             Coordinates (Angstroms)
 Number     Number       Type             X           Y           Z
 ---------------------------------------------------------------------
      1          6           0        0.000000    0.000000    0.000000
      2          1           0        0.000000    0.000000    1.079130
      3          1           0        0.960540    0.000000   -0.491835
      4          1           0       -0.804491    0.524680   -0.491962
      5          1           0       -0.561255   -1.888693   -0.343269
 ---------------------------------------------------------------------

 SCF Done:  E(UwB97XD) =  -40.3880206612     A.U. after    1 cycles

 Alpha  occ. eigenvalues --  -10.33581  -0.78926  -0.51694  -0.51693  -0.35254
 Alpha virt. eigenvalues --   -0.00664   0.04022   0.05057   0.05057   0.07487
 Alpha virt. eigenvalues --    0.11557   0.12610   0.12611   0.13827   0.19663
 Alpha virt. eigenvalues --    0.19663   0.20798   0.20798   0.28291   0.31093

  Beta  occ. eigenvalues --  -10.33581  -0.78926  -0.51694  -0.51693  -0.35254
  Beta virt. eigenvalues --   -0.00664   0.04022   0.05057   0.05057   0.07487
  Beta virt. eigenvalues --    0.11557   0.12610   0.12611   0.13827   0.19663
  Beta virt. eigenvalues --    0.19663   0.20798   0.20798   0.28291   0.31093

 Mulliken charges and spin densities:
               1          2
     1  C   -0.969471   0.000000
     2  H    0.336286  -0.000000
     3  H    0.336423  -0.000000
     4  H    0.336097  -0.000000
     5  H   -0.039335  -0.000000
 Sum of Mulliken charges =   0.00000  -0.00000

 Dipole moment (field-independent basis, Debye):
    X=              0.3516    Y=              1.1828    Z=              0.2150  Tot=              1.2525
 Quadrupole moment (field-independent basis, Debye-Ang):
   XX=             -8.8825   YY=            -10.5929   ZZ=             -8.7786
   XY=             -0.5577   XZ=             -0.1012   YZ=             -0.3411

  Exact polarizability:  22.449   6.504  42.402   1.181   3.976  21.242
 Approx polarizability:  21.271   8.214  46.472   1.493   5.024  19.743

 ******    1 imaginary frequencies (negative Signs) ******

                      1                      2                      3
                      A                      A                      A
 Frequencies --   -912.4806               934.2621               935.1122
 Red. masses --      1.1139                 1.0550                 1.0550
 Frc consts  --      0.5465                 0.5426                 0.5436
 IR Inten    --   152.8                  2.846                  2.877

                      4                      5                      6
                      A                      A                      A
 Frequencies --   1066.6116              1435.9147              1436.5933
 Red. masses --      1.1581                 1.0863                 1.0864
 Frc consts  --      0.7763                 1.3197                 1.3210
 IR Inten    --  0.1051E-02              3.443                  3.443

                      7                      8                      9
                      A                      A                      A
 Frequencies --   3132.3641              3299.4433              3299.4964
 Red. masses --      1.0132                 1.1167                 1.1167
 Frc consts  --      5.8573                 7.1623                 7.1627
 IR Inten    --   4.182                 0.4714                 0.4767

 - Thermochemistry -
 -------------------
 Temperature   298.150 Kelvin.  Pressure   1.00000 Atm.
 Atom     1 has atomic number  6 and mass  12.00000

 Molecular mass:    16.03130 amu.
 Principal axes and moments of inertia in atomic units:
                           1         2         3
     Eigenvalues --    12.20306  20.39564  20.39620
           X            0.28059   0.52327   0.80465
           Y            0.94436  -0.30041  -0.13395
           Z            0.17163   0.79746  -0.57844
 This molecule is an asymmetric top.
 Rotational symmetry number  1.
 Rotational temperatures (Kelvin)      7.09771     4.24668     4.24657
 Rotational constants (GHZ):         147.89255    88.48662    88.48417
    1 imaginary frequencies ignored.
 Zero-point vibrational energy      92948.6 (Joules/Mol)
                                   22.21526 (Kcal/Mol)
 Vibrational temperatures:   1344.19  1345.42  1534.61  2065.96  2066.93
          (Kelvin)           4506.77  4747.16  4747.23

 Zero-point correction=                           0.035402 (Hartree/Particle)
 Thermal correction to Energy=                    0.038371
 Thermal correction to Enthalpy=                  0.039315
 Thermal correction to Gibbs Free Energy=         0.015137
 Sum of electronic and zero-point Energies=            -40.352618
 Sum of electronic and thermal Energies=               -40.349650
 Sum of electronic and thermal Enthalpies=             -40.348706
 Sum of electronic and thermal Free Energies=          -40.372884

                     E (Thermal)             CV                S
                      KCal/Mol        Cal/Mol-Kelvin    Cal/Mol-Kelvin
 Total                   24.078              7.367             50.887
 Electronic               0.000              0.000              0.000
 Translational            0.889              2.981             34.261
 Rotational               0.889              2.981             16.281
 Vibrational             22.301              1.406              0.345

 Optimization completed.
    -- Stationary point found.
 Normal termination of Gaussian 09 at Sat Jun  3 08:51:05 2023.
