 Gaussian 09, Revision D.01,
 Gaussian 09:  EM64L-G09RevD.01 24-Apr-2013

 ----------------------------------------------------------------------
 # uwb97xd/aug-cc-pvtz opt=(noeig,intern,maxcyc=50) # int=ultrafine nos
 ym iop(7/33=1) guess=(mix,always)
 ----------------------------------------------------------------------

 ------
 geom 0
 ------
 Symbolic Z-matrix:
 Charge =  0 Multiplicity = 1

 SCF Done:  E(UwB97XD) =  -79.6902012961     A.U. after   12 cycles
 SCF Done:  E(UwB97XD) =  -79.6906343044     A.U. after   12 cycles
 SCF Done:  E(UwB97XD) =  -79.6912736454     A.U. after   12 cycles
 SCF Done:  E(UwB97XD) =  -79.6917238262     A.U. after   12 cycles
 SCF Done:  E(UwB97XD) =  -79.6917325006     A.U. after   12 cycles
 SCF Done:  E(UwB97XD) =  -79.6917406492     A.U. after   12 cycles
 SCF Done:  E(UwB97XD) =  -79.6917491112     A.U. after   12 cycles
 SCF Done:  E(UwB97XD) =  -79.6917508955     A.U. after   12 cycles
 Optimization completed.
    -- Stationary point found.

                         Z-Matrix orientation:
 ---------------------------------------------------------------------
 Center     Atomic      Atomic             Coordinates (Angstroms)
 Number     Number       Type             X           Y           Z
 ---------------------------------------------------------------------
      1          6           0        0.000000    0.000000    0.000000
      2          1           0        0.000000    0.000000    1.078200
      3          1           0        0.934011    0.000000   -0.538645
      4          1           0       -0.933548   -0.003135   -0.539437
      5          6           0        0.004772   -2.799995    0.002497
      6          1           0       -0.932947   -2.802379    0.534657
      7          1           0        0.934229   -2.798759    0.548960
      8          1           0        0.013165   -2.801981   -1.075668
 ---------------------------------------------------------------------

 Alpha  occ. eigenvalues --  -10.29659 -10.28704  -0.78398  -0.73971  -0.50869
 Alpha  occ. eigenvalues --   -0.50863  -0.49161  -0.49155  -0.30805
 Alpha virt. eigenvalues --    0.01380   0.03299   0.04648   0.04649   0.05737
 Alpha virt. eigenvalues --    0.06974   0.06974   0.10878   0.12023   0.12024
 Alpha virt. eigenvalues --    0.13098   0.14161   0.14162   0.15345   0.16372

  Beta  occ. eigenvalues --  -10.29657 -10.28706  -0.78395  -0.73973  -0.50867
  Beta  occ. eigenvalues --   -0.50861  -0.49163  -0.49156  -0.30803
  Beta virt. eigenvalues --    0.01379   0.03299   0.04648   0.04649   0.05737
  Beta virt. eigenvalues --    0.06974   0.06974   0.10876   0.12021   0.12022
  Beta virt. eigenvalues --    0.13099   0.14161   0.14161   0.15342   0.16369

 Mulliken charges and spin densities:
               1          2
     1  C   -1.094976  -0.900260
     2  H    0.364970   0.014395
     3  H    0.365047   0.014378
     4  H    0.365039   0.014407
     5  C   -1.095635   0.900138
     6  H    0.365236  -0.014316
     7  H    0.365174  -0.014369
     8  H    0.365145  -0.014373
 Sum of Mulliken charges =  -0.00000   0.00000

 Dipole moment (field-independent basis, Debye):
    X=              0.0001    Y=             -0.0041    Z=              0.0001  Tot=              0.0041
 Quadrupole moment (field-independent basis, Debye-Ang):
   XX=            -14.4362   YY=            -18.1078   ZZ=            -14.4348
   XY=              0.0066   XZ=              0.0006   YZ=              0.0032

 Normal termination of Gaussian 09 at Sat May 27 09:28:52 2023.
