 Gaussian 09, Revision D.01,
 Gaussian 09:  EM64L-G09RevD.01 24-Apr-2013

 ----------------------------------------------------------------------
 # uwb97xd/aug-cc-pvtz opt=(noeig,intern,maxcyc=50) # int=ultrafine nos
 ym freq iop(7/33=1) guess=(mix,always)
 ----------------------------------------------------------------------

 ------
 geom 0
 ------
 Symbolic Z-matrix:
 Charge =  0 Multiplicity = 1

 SCF Done:  E(UwB97XD) =  -79.6858365045     A.U. after   12 cycles
 SCF Done:  E(UwB97XD) =  -79.6907027022     A.U. after   12 cycles
 SCF Done:  E(UwB97XD) =  -79.6934910288     A.U. after   12 cycles
 SCF Done:  E(UwB97XD) =  -79.6937495837     A.U. after   11 cycles
 SCF Done:  E(UwB97XD) =  -79.6938139282     A.U. after   12 cycles
 SCF Done:  E(UwB97XD) =  -79.6938220399     A.U. after   11 cycles
 Optimization completed.
    -- Stationary point found.
 Normal termination of Gaussian 09 at Sat May 27 08:52:35 2023.

 ----------------------------------------------------------------------
 #N Geom=AllCheck Guess=TCheck SCRF=Check Test GenChk UwB97XD/Aug-CC-pV
 TZ Freq
 ----------------------------------------------------------------------

 Structure from the checkpoint file:  "tmp.chk"
 ------
 geom 0
 ------
 Charge =  0 Multiplicity = 1

                          Input orientation:
 ---------------------------------------------------------------------
 Center     Atomic      Atomic             Coordinates (Angstroms)
 Number     Number       Type             X           Y           Z
 ---------------------------------------------------------------------
      1          6           0        0.000000    0.000000    0.000000
      2          1           0        0.000000    0.000000    1.078522
      3          1           0        0.945336    0.000000   -0.519464
      4          1           0       -0.877947    0.350325   -0.519578
      5          6           0       -0.519758   -2.734540   -0.303551
      6          1           0       -1.462260   -2.733076    0.220749
      7          1           0        0.361608   -3.079730    0.213693
      8          1           0       -0.525023   -2.741038   -1.382152
 ---------------------------------------------------------------------

 SCF Done:  E(UwB97XD) =  -79.6938220399     A.U. after    1 cycles

 Alpha  occ. eigenvalues --  -10.29765 -10.28837  -0.78195  -0.74147  -0.50476
 Alpha  occ. eigenvalues --   -0.50470  -0.48982  -0.48976  -0.31002
 Alpha virt. eigenvalues --    0.01460   0.03343   0.04676   0.04676   0.05617
 Alpha virt. eigenvalues --    0.06891   0.06893   0.10856   0.12361   0.12368
 Alpha virt. eigenvalues --    0.13205   0.14137   0.14139   0.15015   0.16109

  Beta  occ. eigenvalues --  -10.29765 -10.28838  -0.78195  -0.74146  -0.50475
  Beta  occ. eigenvalues --   -0.50470  -0.48983  -0.48976  -0.31003
  Beta virt. eigenvalues --    0.01460   0.03344   0.04675   0.04676   0.05617
  Beta virt. eigenvalues --    0.06891   0.06893   0.10856   0.12361   0.12368
  Beta virt. eigenvalues --    0.13205   0.14137   0.14139   0.15015   0.16109

 Mulliken charges and spin densities:
               1          2
     1  C   -1.064996  -0.845647
     2  H    0.355102   0.006140
     3  H    0.355041   0.006064
     4  H    0.354835   0.006037
     5  C   -1.065000   0.845707
     6  H    0.355198  -0.006064
     7  H    0.355172  -0.006110
     8  H    0.354649  -0.006126
 Sum of Mulliken charges =   0.00000  -0.00000

 Dipole moment (field-independent basis, Debye):
    X=              0.0005    Y=             -0.0001    Z=              0.0020  Tot=              0.0021
 Quadrupole moment (field-independent basis, Debye-Ang):
   XX=            -14.5977   YY=            -16.3899   ZZ=            -14.5501
   XY=             -0.3582   XZ=             -0.0399   YZ=             -0.2066

  Exact polarizability:  31.497   5.879  61.310   0.649   3.433  30.753
 Approx polarizability:  30.463   3.578  48.637   0.398   2.096  30.017

 ******    1 imaginary frequencies (negative Signs) ******

                      1                      2                      3
                      A                      A                      A
 Frequencies --   -337.1212                42.5641               349.8880
 Red. masses --      8.0729                 1.0078                 1.0118
 Frc consts  --      0.5406                 0.0011                 0.0730
 IR Inten    --  0.2645E-04             0.1605E-02              3.939

                      4                      5                      6
                      A                      A                      A
 Frequencies --    356.5967               462.3664               466.6072
 Red. masses --      1.0119                 1.0813                 1.0814
 Frc consts  --      0.0758                 0.1362                 0.1387
 IR Inten    --   3.872                 0.2862E-04             0.1465E-03

                      7                      8                      9
                      A                      A                      A
 Frequencies --    678.8836               732.9367              1414.9100
 Red. masses --      1.0484                 1.2326                 1.0986
 Frc consts  --      0.2847                 0.3901                 1.2958
 IR Inten    --  0.2284E-02              32.13                  5.150

                     10                     11                     12
                      A                      A                      A
 Frequencies --   1415.1240              1419.3498              1419.5670
 Red. masses --      1.0986                 1.0969                 1.0968
 Frc consts  --      1.2962                 1.3020                 1.3023
 IR Inten    --   5.133                 0.3327E-02             0.1749E-02

                     13                     14                     15
                      A                      A                      A
 Frequencies --   3124.2681              3124.6349              3298.0015
 Red. masses --      1.0098                 1.0100                 1.1179
 Frc consts  --      5.8076                 5.8097                 7.1638
 IR Inten    --   2.113                 0.2871E-01              1.201

                     16                     17                     18
                      A                      A                      A
 Frequencies --   3298.1385              3298.7836              3299.0566
 Red. masses --      1.1174                 1.1175                 1.1173
 Frc consts  --      7.1616                 7.1648                 7.1650
 IR Inten    --   4.519                  4.091                  5.437

 - Thermochemistry -
 -------------------
 Temperature   298.150 Kelvin.  Pressure   1.00000 Atm.
 Atom     1 has atomic number  6 and mass  12.00000

 Molecular mass:    30.04695 amu.
 Principal axes and moments of inertia in atomic units:
                           1         2         3
     Eigenvalues --    24.81351 230.24988 230.25260
           X            0.18557  -0.02364   0.98235
           Y            0.97663  -0.10588  -0.18704
           Z            0.10844   0.99410   0.00344
 This molecule is an asymmetric top.
 Rotational symmetry number  1.
 Rotational temperatures (Kelvin)      3.49059     0.37617     0.37617
 Rotational constants (GHZ):          72.73219     7.83819     7.83809
    1 imaginary frequencies ignored.
 Zero-point vibrational energy     168683.5 (Joules/Mol)
                                   40.31632 (Kcal/Mol)
 Warning -- explicit consideration of   5 degrees of freedom as
           vibrations may cause significant error
 Vibrational temperatures:     61.24   503.41   513.06   665.24   671.34
          (Kelvin)            976.76  1054.53  2035.74  2036.05  2042.13
                             2042.44  4495.12  4495.65  4745.08  4745.28
                             4746.21  4746.60

 Zero-point correction=                           0.064248 (Hartree/Particle)
 Thermal correction to Energy=                    0.069399
 Thermal correction to Enthalpy=                  0.070344
 Thermal correction to Gibbs Free Energy=         0.038248
 Sum of electronic and zero-point Energies=            -79.629574
 Sum of electronic and thermal Energies=               -79.624423
 Sum of electronic and thermal Enthalpies=             -79.623478
 Sum of electronic and thermal Free Energies=          -79.655574

                     E (Thermal)             CV                S
                      KCal/Mol        Cal/Mol-Kelvin    Cal/Mol-Kelvin
 Total                   43.549             15.774             67.551
 Electronic               0.000              0.000              0.000
 Translational            0.889              2.981             36.134
 Rotational               0.889              2.981             21.803
 Vibrational             41.771              9.812              9.614
 Vibration     1          0.595              1.980              5.136
 Vibration     2          0.727              1.575              1.167
 Vibration     3          0.732              1.562              1.137
 Vibration     4          0.820              1.334              0.759
 Vibration     5          0.824              1.324              0.747

 Normal termination of Gaussian 09 at Sat May 27 08:54:19 2023.
