 Gaussian 09, Revision D.01,
 Gaussian 09:  EM64L-G09RevD.01 24-Apr-2013

 ----------------------------------------------------------------------
 # uwb97xd/aug-cc-pvtz opt=(noeig,intern,maxcyc=50) # int=ultrafine nos
 ym iop(7/33=1) guess=(mix,always)
 ----------------------------------------------------------------------

 ------
 geom 0
 ------
 Symbolic Z-matrix:
 Charge =  0 Multiplicity = 1

 SCF Done:  E(UwB97XD) =  -40.3482737372     A.U. after   14 cycles
 SCF Done:  E(UwB97XD) =  -40.3483029090     A.U. after   14 cycles
 SCF Done:  E(UwB97XD) =  -40.3483527545     A.U. after   14 cycles
 SCF Done:  E(UwB97XD) =  -40.3484184250     A.U. after   14 cycles
 SCF Done:  E(UwB97XD) =  -40.3484377250     A.U. after   14 cycles
 Optimization completed.
    -- Stationary point found.

                         Z-Matrix orientation:
 ---------------------------------------------------------------------
 Center     Atomic      Atomic             Coordinates (Angstroms)
 Number     Number       Type             X           Y           Z
 ---------------------------------------------------------------------
      1          6           0        0.000000    0.000000    0.000000
      2          1           0        0.000000    0.000000    1.078200
      3          1           0        0.934011    0.000000   -0.538645
      4          1           0       -0.933548   -0.003135   -0.539437
      5          1           0        0.003733   -2.599997    0.001951
 ---------------------------------------------------------------------

 Alpha  occ. eigenvalues --  -10.31175  -0.79492  -0.51775  -0.51767  -0.32399
 Alpha virt. eigenvalues --   -0.02417   0.03779   0.05107   0.05108   0.10400
 Alpha virt. eigenvalues --    0.11119   0.12709   0.12710   0.13823   0.19475
 Alpha virt. eigenvalues --    0.19477   0.20256   0.20257   0.26470   0.29874

  Beta  occ. eigenvalues --  -10.30186  -0.75422  -0.50689  -0.50681  -0.38543
  Beta virt. eigenvalues --   -0.00154   0.04233   0.05194   0.05195   0.06492
  Beta virt. eigenvalues --    0.13039   0.13041   0.13270   0.14587   0.19739
  Beta virt. eigenvalues --    0.19739   0.20604   0.20604   0.26866   0.30063

 Mulliken charges and spin densities:
               1          2
     1  C   -1.082737   0.915506
     2  H    0.371434  -0.004528
     3  H    0.371448  -0.004568
     4  H    0.371458  -0.004599
     5  H   -0.031603  -0.901811
 Sum of Mulliken charges =  -0.00000   0.00000

 Dipole moment (field-independent basis, Debye):
    X=             -0.0007    Y=              0.5690    Z=             -0.0004  Tot=              0.5690
 Quadrupole moment (field-independent basis, Debye-Ang):
   XX=             -8.6304   YY=            -11.4276   ZZ=             -8.6308
   XY=              0.0045   XZ=              0.0009   YZ=              0.0026

 Normal termination of Gaussian 09 at Sat Jun  3 09:00:57 2023.
