 Gaussian 09, Revision D.01,
 Gaussian 09:  EM64L-G09RevD.01 24-Apr-2013

 ----------------------------------------------------------------------
 # uwb97xd/aug-cc-pvtz opt=(noeig,intern,maxcyc=50) # int=ultrafine nos
 ym freq iop(7/33=1) guess=(mix,always)
 ----------------------------------------------------------------------

 ------
 geom 0
 ------
 Symbolic Z-matrix:
 Charge =  0 Multiplicity = 1

 SCF Done:  E(UwB97XD) =  -40.3474513477     A.U. after   14 cycles
 SCF Done:  E(UwB97XD) =  -40.3480955534     A.U. after   14 cycles
 SCF Done:  E(UwB97XD) =  -40.3486878967     A.U. after   14 cycles
 SCF Done:  E(UwB97XD) =  -40.3487297476     A.U. after   14 cycles
 SCF Done:  E(UwB97XD) =  -40.3487421840     A.U. after   14 cycles
 SCF Done:  E(UwB97XD) =  -40.3487426646     A.U. after   14 cycles
 Optimization completed.
    -- Stationary point found.
 Normal termination of Gaussian 09 at Sat Jun  3 08:52:43 2023.

 ----------------------------------------------------------------------
 #N Geom=AllCheck Guess=TCheck SCRF=Check Test GenChk UwB97XD/Aug-CC-pV
 TZ Freq
 ----------------------------------------------------------------------

 Structure from the checkpoint file:  "tmp.chk"
 ------
 geom 0
 ------
 Charge =  0 Multiplicity = 1

                          Input orientation:
 ---------------------------------------------------------------------
 Center     Atomic      Atomic             Coordinates (Angstroms)
 Number     Number       Type             X           Y           Z
 ---------------------------------------------------------------------
      1          6           0        0.000000    0.000000    0.000000
      2          1           0        0.000000    0.000000    1.078298
      3          1           0        0.937157    0.000000   -0.533489
      4          1           0       -0.916789    0.194562   -0.533403
      5          1           0       -0.265674   -2.581852   -0.153153
 ---------------------------------------------------------------------

 SCF Done:  E(UwB97XD) =  -40.3487426646     A.U. after    1 cycles

 Alpha  occ. eigenvalues --  -10.31251  -0.79522  -0.51748  -0.51741  -0.32528
 Alpha virt. eigenvalues --   -0.02333   0.03745   0.05083   0.05085   0.10446
 Alpha virt. eigenvalues --    0.11161   0.12718   0.12719   0.13788   0.19533
 Alpha virt. eigenvalues --    0.19547   0.20252   0.20261   0.26423   0.30032

  Beta  occ. eigenvalues --  -10.30264  -0.75487  -0.50656  -0.50647  -0.38422
  Beta virt. eigenvalues --   -0.00197   0.04184   0.05205   0.05206   0.06497
  Beta virt. eigenvalues --    0.12965   0.12967   0.13219   0.14398   0.19756
  Beta virt. eigenvalues --    0.19767   0.20609   0.20615   0.26804   0.30151

 Mulliken charges and spin densities:
               1          2
     1  C   -1.072327   0.909096
     2  H    0.367524  -0.003694
     3  H    0.367487  -0.003756
     4  H    0.367203  -0.003838
     5  H   -0.029888  -0.897808
 Sum of Mulliken charges =  -0.00000   0.00000

 Dipole moment (field-independent basis, Debye):
    X=              0.0726    Y=              0.7009    Z=              0.0419  Tot=              0.7059
 Quadrupole moment (field-independent basis, Debye-Ang):
   XX=             -8.6756   YY=            -11.3437   ZZ=             -8.6546
   XY=             -0.2818   XZ=             -0.0172   YZ=             -0.1636

  Exact polarizability:  21.136   2.525  45.366   0.149   1.455  20.961
 Approx polarizability:  18.483   1.109  29.174   0.065   0.639  18.408

 ******    1 imaginary frequencies (negative Signs) ******

                      1                      2                      3
                      A                      A                      A
 Frequencies --   -754.3766               371.6032               380.2741
 Red. masses --      1.0958                 1.0251                 1.0250
 Frc consts  --      0.3674                 0.0834                 0.0873
 IR Inten    --   110.5                 0.2949                 0.3004

                      4                      5                      6
                      A                      A                      A
 Frequencies --    670.5563              1413.1690              1413.6585
 Red. masses --      1.1848                 1.1003                 1.1003
 Frc consts  --      0.3139                 1.2946                 1.2955
 IR Inten    --   47.45                  3.349                  3.344

                      7                      8                      9
                      A                      A                      A
 Frequencies --   3125.7992              3307.1235              3307.2435
 Red. masses --      1.0085                 1.1185                 1.1185
 Frc consts  --      5.8055                 7.2075                 7.2082
 IR Inten    --  0.2651                  1.530                  1.536

 - Thermochemistry -
 -------------------
 Temperature   298.150 Kelvin.  Pressure   1.00000 Atm.
 Atom     1 has atomic number  6 and mass  12.00000

 Molecular mass:    16.03130 amu.
 Principal axes and moments of inertia in atomic units:
                           1         2         3
     Eigenvalues --    12.50892  29.32096  29.32356
           X            0.10145  -0.09032   0.99073
           Y            0.99313  -0.04914  -0.10618
           Z            0.05828   0.99470   0.08471
 This molecule is an asymmetric top.
 Rotational symmetry number  1.
 Rotational temperatures (Kelvin)      6.92416     2.95399     2.95373
 Rotational constants (GHZ):         144.27629    61.55123    61.54578
    1 imaginary frequencies ignored.
 Zero-point vibrational energy      83675.4 (Joules/Mol)
                                   19.99889 (Kcal/Mol)
 Warning -- explicit consideration of   2 degrees of freedom as
           vibrations may cause significant error
 Vibrational temperatures:    534.65   547.13   964.78  2033.23  2033.94
          (Kelvin)           4497.32  4758.21  4758.38

 Zero-point correction=                           0.031870 (Hartree/Particle)
 Thermal correction to Energy=                    0.035509
 Thermal correction to Enthalpy=                  0.036453
 Thermal correction to Gibbs Free Energy=         0.010902
 Sum of electronic and zero-point Energies=            -40.316872
 Sum of electronic and thermal Energies=               -40.313234
 Sum of electronic and thermal Enthalpies=             -40.312289
 Sum of electronic and thermal Free Energies=          -40.337840

                     E (Thermal)             CV                S
                      KCal/Mol        Cal/Mol-Kelvin    Cal/Mol-Kelvin
 Total                   22.282             10.093             53.776
 Electronic               0.000              0.000              0.000
 Translational            0.889              2.981             34.261
 Rotational               0.889              2.981             17.027
 Vibrational             20.505              4.132              2.488
 Vibration     1          0.743              1.530              1.073
 Vibration     2          0.750              1.512              1.038

 Normal termination of Gaussian 09 at Sat Jun  3 08:53:01 2023.
