 Gaussian 09, Revision D.01,
 Gaussian 09:  EM64L-G09RevD.01 24-Apr-2013

 ----------------------------------------------------------------------
 # uwb97xd/aug-cc-pvtz opt=(noeig,intern,maxcyc=50) # int=ultrafine nos
 ym iop(7/33=1) guess=(mix,always)
 ----------------------------------------------------------------------

 ------
 geom 0
 ------
 Symbolic Z-matrix:
 Charge =  0 Multiplicity = 1

 SCF Done:  E(UwB97XD) =  -40.3538414296     A.U. after   14 cycles
 SCF Done:  E(UwB97XD) =  -40.3540295392     A.U. after   14 cycles
 SCF Done:  E(UwB97XD) =  -40.3543051178     A.U. after   13 cycles
 SCF Done:  E(UwB97XD) =  -40.3544666949     A.U. after   13 cycles
 Optimization completed.
    -- Stationary point found.

                         Z-Matrix orientation:
 ---------------------------------------------------------------------
 Center     Atomic      Atomic             Coordinates (Angstroms)
 Number     Number       Type             X           Y           Z
 ---------------------------------------------------------------------
      1          6           0        0.000000    0.000000    0.000000
      2          1           0        0.000000    0.000000    1.078200
      3          1           0        0.934011    0.000000   -0.538645
      4          1           0       -0.933548   -0.003135   -0.539437
      5          1           0        0.003305   -2.399998    0.000256
 ---------------------------------------------------------------------

 Alpha  occ. eigenvalues --  -10.32032  -0.79852  -0.52181  -0.52173  -0.32883
 Alpha virt. eigenvalues --   -0.02568   0.03739   0.05072   0.05072   0.09696
 Alpha virt. eigenvalues --    0.10969   0.12613   0.12615   0.13717   0.19355
 Alpha virt. eigenvalues --    0.19358   0.20444   0.20447   0.27037   0.29771

  Beta  occ. eigenvalues --  -10.31143  -0.76136  -0.51205  -0.51197  -0.37535
  Beta virt. eigenvalues --   -0.00267   0.04224   0.05148   0.05148   0.06622
  Beta virt. eigenvalues --    0.12899   0.12901   0.12989   0.14390   0.19581
  Beta virt. eigenvalues --    0.19583   0.20871   0.20873   0.27627   0.30196

 Mulliken charges and spin densities:
               1          2
     1  C   -1.057254   0.829844
     2  H    0.371053  -0.002973
     3  H    0.371125  -0.002982
     4  H    0.371133  -0.003018
     5  H   -0.056057  -0.820871
 Sum of Mulliken charges =  -0.00000   0.00000

 Dipole moment (field-independent basis, Debye):
    X=             -0.0011    Y=              0.8419    Z=             -0.0002  Tot=              0.8419
 Quadrupole moment (field-independent basis, Debye-Ang):
   XX=             -8.6239   YY=            -11.7962   ZZ=             -8.6244
   XY=              0.0051   XZ=              0.0009   YZ=              0.0023

 Normal termination of Gaussian 09 at Sat Jun  3 08:59:28 2023.
