 Gaussian 09, Revision D.01,
 Gaussian 09:  EM64L-G09RevD.01 24-Apr-2013

 ----------------------------------------------------------------------
 # uwb97xd/aug-cc-pvtz opt=(noeig,intern,maxcyc=50) # int=ultrafine nos
 ym freq iop(7/33=1) guess=(mix,always)
 ----------------------------------------------------------------------

 ------
 geom 0
 ------
 Symbolic Z-matrix:
 Charge =  0 Multiplicity = 1

 SCF Done:  E(UwB97XD) =  -40.3544461443     A.U. after   15 cycles
 SCF Done:  E(UwB97XD) =  -40.3549441216     A.U. after   15 cycles
 SCF Done:  E(UwB97XD) =  -40.3553057359     A.U. after   14 cycles
 SCF Done:  E(UwB97XD) =  -40.3553180678     A.U. after   13 cycles
 SCF Done:  E(UwB97XD) =  -40.3553197432     A.U. after   13 cycles
 SCF Done:  E(UwB97XD) =  -40.3553205195     A.U. after   13 cycles
 Optimization completed.
    -- Stationary point found.
 Normal termination of Gaussian 09 at Sat Jun  3 08:54:19 2023.

 ----------------------------------------------------------------------
 #N Geom=AllCheck Guess=TCheck SCRF=Check Test GenChk UwB97XD/Aug-CC-pV
 TZ Freq
 ----------------------------------------------------------------------

 Structure from the checkpoint file:  "tmp.chk"
 ------
 geom 0
 ------
 Charge =  0 Multiplicity = 1

                          Input orientation:
 ---------------------------------------------------------------------
 Center     Atomic      Atomic             Coordinates (Angstroms)
 Number     Number       Type             X           Y           Z
 ---------------------------------------------------------------------
      1          6           0        0.000000    0.000000    0.000000
      2          1           0        0.000000    0.000000    1.078363
      3          1           0        0.941290    0.000000   -0.526238
      4          1           0       -0.896711    0.286262   -0.526210
      5          1           0       -0.365337   -2.362378   -0.213777
 ---------------------------------------------------------------------

 SCF Done:  E(UwB97XD) =  -40.3553205195     A.U. after    1 cycles

 Alpha  occ. eigenvalues --  -10.32158  -0.79884  -0.52091  -0.52087  -0.33144
 Alpha virt. eigenvalues --   -0.02425   0.03702   0.05045   0.05045   0.09738
 Alpha virt. eigenvalues --    0.11071   0.12638   0.12639   0.13692   0.19451
 Alpha virt. eigenvalues --    0.19457   0.20382   0.20385   0.27003   0.29986

  Beta  occ. eigenvalues --  -10.31275  -0.76251  -0.51105  -0.51101  -0.37416
  Beta virt. eigenvalues --   -0.00299   0.04145   0.05153   0.05154   0.06621
  Beta virt. eigenvalues --    0.12811   0.12812   0.12899   0.14166   0.19643
  Beta virt. eigenvalues --    0.19648   0.20801   0.20803   0.27499   0.30381

 Mulliken charges and spin densities:
               1          2
     1  C   -1.044542   0.808310
     2  H    0.365194   0.000738
     3  H    0.365208   0.000706
     4  H    0.364952   0.000623
     5  H   -0.050811  -0.810377
 Sum of Mulliken charges =   0.00000  -0.00000

 Dipole moment (field-independent basis, Debye):
    X=              0.1554    Y=              1.0024    Z=              0.0910  Tot=              1.0184
 Quadrupole moment (field-independent basis, Debye-Ang):
   XX=             -8.7274   YY=            -11.5516   ZZ=             -8.6807
   XY=             -0.4499   XZ=             -0.0410   YZ=             -0.2638

  Exact polarizability:  21.506   4.160  47.706   0.374   2.422  21.078
 Approx polarizability:  18.921   2.483  34.606   0.224   1.453  18.669

 ******    1 imaginary frequencies (negative Signs) ******

                      1                      2                      3
                      A                      A                      A
 Frequencies --   -977.5921               509.4869               512.7881
 Red. masses --      1.0999                 1.0311                 1.0311
 Frc consts  --      0.6193                 0.1577                 0.1598
 IR Inten    --   84.97                 0.4842                 0.4712

                      4                      5                      6
                      A                      A                      A
 Frequencies --    776.8050              1417.2164              1417.9288
 Red. masses --      1.1790                 1.0984                 1.0984
 Frc consts  --      0.4192                 1.2999                 1.3012
 IR Inten    --   22.45                  3.555                  3.554

                      7                      8                      9
                      A                      A                      A
 Frequencies --   3128.1373              3307.8055              3307.9476
 Red. masses --      1.0093                 1.1183                 1.1183
 Frc consts  --      5.8189                 7.2090                 7.2097
 IR Inten    --  0.7546                 0.8579                 0.8527

 - Thermochemistry -
 -------------------
 Temperature   298.150 Kelvin.  Pressure   1.00000 Atm.
 Atom     1 has atomic number  6 and mass  12.00000

 Molecular mass:    16.03130 amu.
 Principal axes and moments of inertia in atomic units:
                           1         2         3
     Eigenvalues --    12.45454  26.05194  26.05325
           X            0.15176  -0.08364   0.98487
           Y            0.98443  -0.07662  -0.15820
           Z            0.08869   0.99355   0.07071
 This molecule is an asymmetric top.
 Rotational symmetry number  1.
 Rotational temperatures (Kelvin)      6.95440     3.32466     3.32449
 Rotational constants (GHZ):         144.90627    69.27474    69.27126
    1 imaginary frequencies ignored.
 Zero-point vibrational energy      86000.2 (Joules/Mol)
                                   20.55455 (Kcal/Mol)
 Warning -- explicit consideration of   2 degrees of freedom as
           vibrations may cause significant error
 Vibrational temperatures:    733.04   737.79  1117.65  2039.06  2040.08
          (Kelvin)           4500.69  4759.19  4759.39

 Zero-point correction=                           0.032756 (Hartree/Particle)
 Thermal correction to Energy=                    0.036120
 Thermal correction to Enthalpy=                  0.037064
 Thermal correction to Gibbs Free Energy=         0.012086
 Sum of electronic and zero-point Energies=            -40.322565
 Sum of electronic and thermal Energies=               -40.319201
 Sum of electronic and thermal Enthalpies=             -40.318257
 Sum of electronic and thermal Free Energies=          -40.343235

                     E (Thermal)             CV                S
                      KCal/Mol        Cal/Mol-Kelvin    Cal/Mol-Kelvin
 Total                   22.665              9.302             52.571
 Electronic               0.000              0.000              0.000
 Translational            0.889              2.981             34.261
 Rotational               0.889              2.981             16.787
 Vibrational             20.888              3.340              1.522
 Vibration     1          0.865              1.229              0.635
 Vibration     2          0.868              1.222              0.627

 Optimization completed.
    -- Stationary point found.
 Normal termination of Gaussian 09 at Sat Jun  3 08:55:03 2023.
