 Gaussian 09, Revision D.01,
 Gaussian 09:  EM64L-G09RevD.01 24-Apr-2013

 ----------------------------------------------------------------------
 # uwb97xd/aug-cc-pvtz opt=(noeig,intern,maxcyc=50) # int=ultrafine nos
 ym iop(7/33=1) guess=(mix,always)
 ----------------------------------------------------------------------

 ------
 geom 0
 ------
 Symbolic Z-matrix:
 Charge =  0 Multiplicity = 1

 SCF Done:  E(UwB97XD) =  -79.6826084827     A.U. after   11 cycles

 Alpha  occ. eigenvalues --  -10.29525 -10.28448  -0.78407  -0.73998  -0.50715
 Alpha  occ. eigenvalues --   -0.50709  -0.49461  -0.49452  -0.31151
 Alpha virt. eigenvalues --    0.00466   0.03291   0.04667   0.04676   0.05457
 Alpha virt. eigenvalues --    0.06814   0.06839   0.11078   0.12233   0.12296
 Alpha virt. eigenvalues --    0.13091   0.14014   0.14044   0.15270   0.16103

  Beta  occ. eigenvalues --  -10.29528 -10.28445  -0.78410  -0.73994  -0.50718
  Beta  occ. eigenvalues --   -0.50712  -0.49455  -0.49452  -0.31154
  Beta virt. eigenvalues --    0.00469   0.03291   0.04666   0.04676   0.05458
  Beta virt. eigenvalues --    0.06814   0.06839   0.11080   0.12237   0.12296
  Beta virt. eigenvalues --    0.13090   0.14017   0.14043   0.15272   0.16109

 Mulliken charges and spin densities:
               1          2
     1  C   -1.089924   1.002954
     2  H    0.362421  -0.011057
     3  H    0.362779  -0.011705
     4  H    0.364761  -0.010245
     5  C   -1.089829  -1.003139
     6  H    0.362667   0.011800
     7  H    0.362566   0.010774
     8  H    0.364560   0.010616
 Sum of Mulliken charges =  -0.00000  -0.00000

 Dipole moment (field-independent basis, Debye):
    X=             -0.0000    Y=             -0.0045    Z=             -0.0001  Tot=              0.0045
 Quadrupole moment (field-independent basis, Debye-Ang):
   XX=            -14.4360   YY=            -18.0292   ZZ=            -14.4384
   XY=             -0.0447   XZ=             -0.0020   YZ=             -0.0919

 Optimization completed.
    -- Stationary point found.

                         Z-Matrix orientation:
 ---------------------------------------------------------------------
 Center     Atomic      Atomic             Coordinates (Angstroms)
 Number     Number       Type             X           Y           Z
 ---------------------------------------------------------------------
      1          6           0        0.000000    0.000000    0.000000
      2          1           0        0.000000    0.000000    1.078200
      3          1           0        0.934011    0.000000   -0.538645
      4          1           0       -0.933548   -0.003135   -0.539437
      5          6           0       -0.104083   -3.397736   -0.067496
      6          1           0       -1.032415   -3.401236    0.480868
      7          1           0        0.834014   -3.452430    0.461179
      8          1           0       -0.113803   -3.342701   -1.144247
 ---------------------------------------------------------------------

 Normal termination of Gaussian 09 at Sat May 27 09:30:46 2023.
