 Gaussian 09, Revision D.01,
 Gaussian 09:  EM64L-G09RevD.01 24-Apr-2013

 ----------------------------------------------------------------------
 # uwb97xd/aug-cc-pvtz opt=(noeig,intern,maxcyc=50) # int=ultrafine nos
 ym freq iop(7/33=1) guess=(mix,always)
 ----------------------------------------------------------------------

 ------
 geom 0
 ------
 Symbolic Z-matrix:
 Charge =  0 Multiplicity = 1

 SCF Done:  E(UwB97XD) =  -79.6703885709     A.U. after   11 cycles
 SCF Done:  E(UwB97XD) =  -79.6764586412     A.U. after   11 cycles
 SCF Done:  E(UwB97XD) =  -79.6796964606     A.U. after   11 cycles
 SCF Done:  E(UwB97XD) =  -79.6816344016     A.U. after   11 cycles
 SCF Done:  E(UwB97XD) =  -79.6823778734     A.U. after   11 cycles
 SCF Done:  E(UwB97XD) =  -79.6826459178     A.U. after   11 cycles
 SCF Done:  E(UwB97XD) =  -79.6826623958     A.U. after   11 cycles
 SCF Done:  E(UwB97XD) =  -79.6826630345     A.U. after   11 cycles
 SCF Done:  E(UwB97XD) =  -79.6826631427     A.U. after   11 cycles
 Optimization completed.
    -- Stationary point found.
 Normal termination of Gaussian 09 at Sat May 27 09:01:55 2023.

 ----------------------------------------------------------------------
 #N Geom=AllCheck Guess=TCheck SCRF=Check Test GenChk UwB97XD/Aug-CC-pV
 TZ Freq
 ----------------------------------------------------------------------

 Structure from the checkpoint file:  "tmp.chk"
 ------
 geom 0
 ------
 Charge =  0 Multiplicity = 1

                          Input orientation:
 ---------------------------------------------------------------------
 Center     Atomic      Atomic             Coordinates (Angstroms)
 Number     Number       Type             X           Y           Z
 ---------------------------------------------------------------------
      1          6           0        0.000000    0.000000    0.000000
      2          1           0        0.000000    0.000000    1.078127
      3          1           0        0.934073    0.000000   -0.538432
      4          1           0       -0.931660    0.067003   -0.538419
      5          6           0       -0.104084   -3.397736   -0.067494
      6          1           0       -1.032356   -3.401235    0.480834
      7          1           0        0.833687   -3.452446    0.461654
      8          1           0       -0.115273   -3.406244   -1.145533
 ---------------------------------------------------------------------

 SCF Done:  E(UwB97XD) =  -79.6826631427     A.U. after    1 cycles

 Alpha  occ. eigenvalues --  -10.29510 -10.28432  -0.78383  -0.73983  -0.50684
 Alpha  occ. eigenvalues --   -0.50678  -0.49431  -0.49428  -0.31130
 Alpha virt. eigenvalues --    0.00494   0.03300   0.04672   0.04674   0.05436
 Alpha virt. eigenvalues --    0.06810   0.06814   0.11089   0.12316   0.12331
 Alpha virt. eigenvalues --    0.13108   0.14007   0.14014   0.15247   0.16026

  Beta  occ. eigenvalues --  -10.29510 -10.28432  -0.78383  -0.73983  -0.50682
  Beta  occ. eigenvalues --   -0.50680  -0.49432  -0.49426  -0.31131
  Beta virt. eigenvalues --    0.00495   0.03300   0.04672   0.04674   0.05436
  Beta virt. eigenvalues --    0.06810   0.06814   0.11089   0.12318   0.12330
  Beta virt. eigenvalues --    0.13108   0.14008   0.14013   0.15247   0.16027

 Mulliken charges and spin densities:
               1          2
     1  C   -1.087142  -1.002342
     2  H    0.362403   0.011340
     3  H    0.362561   0.011137
     4  H    0.362173   0.011171
     5  C   -1.087147   1.002315
     6  H    0.362408  -0.011160
     7  H    0.362670  -0.011090
     8  H    0.362074  -0.011371
 Sum of Mulliken charges =  -0.00000  -0.00000

 Dipole moment (field-independent basis, Debye):
    X=              0.0004    Y=              0.0002    Z=              0.0005  Tot=              0.0007
 Quadrupole moment (field-independent basis, Debye-Ang):
   XX=            -14.4424   YY=            -17.7238   ZZ=            -14.4386
   XY=             -0.1054   XZ=             -0.0021   YZ=             -0.0546

  Exact polarizability:  31.063   0.496  47.016   0.010   0.315  31.048
 Approx polarizability:  29.619   0.169  35.223   0.003   0.119  29.618

 ******    1 imaginary frequencies (negative Signs) ******

                      1                      2                      3
                      A                      A                      A
 Frequencies --   -142.3617                25.8812               165.9745
 Red. masses --      4.9298                 1.0078                 1.0080
 Frc consts  --      0.0589                 0.0004                 0.0164
 IR Inten    --  0.4135E-04             0.7553E-03             0.1200

                      4                      5                      6
                      A                      A                      A
 Frequencies --    179.5580               199.4257               210.6548
 Red. masses --      1.0080                 1.0414                 1.0415
 Frc consts  --      0.0191                 0.0244                 0.0272
 IR Inten    --  0.1310                 0.1450E-04             0.7565E-04

                      7                      8                      9
                      A                      A                      A
 Frequencies --    523.0506               542.4615              1408.4505
 Red. masses --      1.1457                 1.2355                 1.1018
 Frc consts  --      0.1847                 0.2142                 1.2878
 IR Inten    --  0.7767E-02              146.5                  5.311

                     10                     11                     12
                      A                      A                      A
 Frequencies --   1408.7973              1410.9752              1411.3135
 Red. masses --      1.1018                 1.1014                 1.1013
 Frc consts  --      1.2884                 1.2920                 1.2925
 IR Inten    --   5.277                 0.2525E-03             0.5566E-02

                     13                     14                     15
                      A                      A                      A
 Frequencies --   3124.4135              3124.7401              3305.2183
 Red. masses --      1.0079                 1.0079                 1.1187
 Frc consts  --      5.7970                 5.7983                 7.2004
 IR Inten    --  0.6522E-02             0.2795E-04             0.4815E-01

                     16                     17                     18
                      A                      A                      A
 Frequencies --   3305.4215              3305.7593              3305.9776
 Red. masses --      1.1187                 1.1185                 1.1185
 Frc consts  --      7.2012                 7.2013                 7.2023
 IR Inten    --  0.2146                  6.737                  6.752

 - Thermochemistry -
 -------------------
 Temperature   298.150 Kelvin.  Pressure   1.00000 Atm.
 Atom     1 has atomic number  6 and mass  12.00000

 Molecular mass:    30.04695 amu.
 Principal axes and moments of inertia in atomic units:
                           1         2         3
     Eigenvalues --    25.08913 324.28752 324.29036
           X            0.03057  -0.23486   0.97155
           Y            0.99933  -0.01224  -0.03440
           Z            0.01997   0.97195   0.23433
 This molecule is an asymmetric top.
 Rotational symmetry number  1.
 Rotational temperatures (Kelvin)      3.45224     0.26709     0.26709
 Rotational constants (GHZ):          71.93318     5.56525     5.56520
    1 imaginary frequencies ignored.
 Zero-point vibrational energy     161245.1 (Joules/Mol)
                                   38.53850 (Kcal/Mol)
 Warning -- explicit consideration of   7 degrees of freedom as
           vibrations may cause significant error
 Vibrational temperatures:     37.24   238.80   258.34   286.93   303.08
          (Kelvin)            752.55   780.48  2026.44  2026.94  2030.08
                             2030.56  4495.33  4495.80  4755.47  4755.76
                             4756.24  4756.56

 Zero-point correction=                           0.061415 (Hartree/Particle)
 Thermal correction to Energy=                    0.067880
 Thermal correction to Enthalpy=                  0.068824
 Thermal correction to Gibbs Free Energy=         0.033203
 Sum of electronic and zero-point Energies=            -79.621248
 Sum of electronic and thermal Energies=               -79.614783
 Sum of electronic and thermal Enthalpies=             -79.613839
 Sum of electronic and thermal Free Energies=          -79.649461

                     E (Thermal)             CV                S
                      KCal/Mol        Cal/Mol-Kelvin    Cal/Mol-Kelvin
 Total                   42.595             18.128             74.972
 Electronic               0.000              0.000              0.000
 Translational            0.889              2.981             36.134
 Rotational               0.889              2.981             22.494
 Vibrational             40.818             12.166             16.344
 Vibration     1          0.593              1.985              6.122
 Vibration     2          0.624              1.884              2.481
 Vibration     3          0.629              1.867              2.333
 Vibration     4          0.638              1.841              2.138
 Vibration     5          0.643              1.825              2.038
 Vibration     6          0.878              1.199              0.603
 Vibration     7          0.898              1.156              0.560

 Normal termination of Gaussian 09 at Sat May 27 09:03:31 2023.
