 Gaussian 09, Revision D.01,
 Gaussian 09:  EM64L-G09RevD.01 24-Apr-2013

 ----------------------------------------------------------------------
 # uwb97xd/aug-cc-pvtz opt=(noeig,intern,maxcyc=50) # int=ultrafine nos
 ym iop(7/33=1) guess=(mix,always)
 ----------------------------------------------------------------------

 ------
 geom 0
 ------
 Symbolic Z-matrix:
 Charge =  0 Multiplicity = 1

 SCF Done:  E(UwB97XD) =  -40.3417841893     A.U. after   16 cycles

 Alpha  occ. eigenvalues --  -10.29569  -0.78681  -0.50926  -0.50918  -0.31519
 Alpha virt. eigenvalues --    0.03541   0.05307   0.05308   0.10013   0.12649
 Alpha virt. eigenvalues --    0.13300   0.13302   0.13554   0.19535   0.20109
 Alpha virt. eigenvalues --    0.20110   0.25123   0.25125   0.29424   0.32812

  Beta  occ. eigenvalues --  -10.28449  -0.74183  -0.49701  -0.49693  -0.40233
  Beta virt. eigenvalues --   -0.00045   0.04171   0.05312   0.05313   0.06402
  Beta virt. eigenvalues --    0.13462   0.13464   0.13551   0.14962   0.19657
  Beta virt. eigenvalues --    0.19658   0.20297   0.20299   0.22243   0.28314

 Mulliken charges and spin densities:
               1          2
     1  C   -1.054960   1.036421
     2  H    0.350599  -0.011793
     3  H    0.350590  -0.011843
     4  H    0.350607  -0.011874
     5  H    0.003164  -1.000912
 Sum of Mulliken charges =  -0.00000  -0.00000

 Dipole moment (field-independent basis, Debye):
    X=              0.0001    Y=              0.0077    Z=              0.0000  Tot=              0.0077
 Quadrupole moment (field-independent basis, Debye-Ang):
   XX=             -8.6117   YY=            -10.5805   ZZ=             -8.6122
   XY=              0.0032   XZ=              0.0009   YZ=              0.0019

 Optimization completed.
    -- Stationary point found.

                         Z-Matrix orientation:
 ---------------------------------------------------------------------
 Center     Atomic      Atomic             Coordinates (Angstroms)
 Number     Number       Type             X           Y           Z
 ---------------------------------------------------------------------
      1          6           0        0.000000    0.000000    0.000000
      2          1           0        0.000000    0.000000    1.078200
      3          1           0        0.934011    0.000000   -0.538645
      4          1           0       -0.933548   -0.003135   -0.539437
      5          1           0        0.003500   -3.599994    0.005806
 ---------------------------------------------------------------------

 Normal termination of Gaussian 09 at Sat Jun  3 09:00:10 2023.
