 Gaussian 09, Revision D.01,
 Gaussian 09:  EM64L-G09RevD.01 24-Apr-2013

 ----------------------------------------------------------------------
 # uwb97xd/aug-cc-pvtz opt=(noeig,intern,maxcyc=50) # int=ultrafine nos
 ym freq iop(7/33=1) guess=(mix,always)
 ----------------------------------------------------------------------

 ------
 geom 0
 ------
 Symbolic Z-matrix:
 Charge =  0 Multiplicity = 1

 SCF Done:  E(UwB97XD) =  -40.3398508758     A.U. after   16 cycles
 SCF Done:  E(UwB97XD) =  -40.3406021110     A.U. after   16 cycles
 SCF Done:  E(UwB97XD) =  -40.3414997182     A.U. after   17 cycles
 SCF Done:  E(UwB97XD) =  -40.3416829487     A.U. after   17 cycles
 SCF Done:  E(UwB97XD) =  -40.3417772577     A.U. after   17 cycles
 SCF Done:  E(UwB97XD) =  -40.3417839608     A.U. after   16 cycles
 SCF Done:  E(UwB97XD) =  -40.3417828224     A.U. after   16 cycles
 SCF Done:  E(UwB97XD) =  -40.3417846002     A.U. after   16 cycles
 Optimization completed.
    -- Stationary point found.
 Normal termination of Gaussian 09 at Sat Jun  3 08:54:29 2023.

 ----------------------------------------------------------------------
 #N Geom=AllCheck Guess=TCheck SCRF=Check Test GenChk UwB97XD/Aug-CC-pV
 TZ Freq
 ----------------------------------------------------------------------

 Structure from the checkpoint file:  "tmp.chk"
 ------
 geom 0
 ------
 Charge =  0 Multiplicity = 1

                          Input orientation:
 ---------------------------------------------------------------------
 Center     Atomic      Atomic             Coordinates (Angstroms)
 Number     Number       Type             X           Y           Z
 ---------------------------------------------------------------------
      1          6           0        0.000000    0.000000    0.000000
      2          1           0        0.000000    0.000000    1.078278
      3          1           0        0.933853    0.000000   -0.539105
      4          1           0       -0.933751    0.005991   -0.539238
      5          1           0        0.003500   -3.599994    0.005808
 ---------------------------------------------------------------------

 SCF Done:  E(UwB97XD) =  -40.3417846002     A.U. after    1 cycles

 Alpha  occ. eigenvalues --  -10.29572  -0.78678  -0.50921  -0.50919  -0.31519
 Alpha virt. eigenvalues --    0.03540   0.05303   0.05308   0.10012   0.12650
 Alpha virt. eigenvalues --    0.13301   0.13304   0.13553   0.19524   0.20107
 Alpha virt. eigenvalues --    0.20109   0.25122   0.25125   0.29405   0.32812

  Beta  occ. eigenvalues --  -10.28452  -0.74181  -0.49696  -0.49694  -0.40229
  Beta virt. eigenvalues --   -0.00047   0.04170   0.05313   0.05315   0.06402
  Beta virt. eigenvalues --    0.13456   0.13460   0.13553   0.14952   0.19659
  Beta virt. eigenvalues --    0.19660   0.20292   0.20301   0.22244   0.28305

 Mulliken charges and spin densities:
               1          2
     1  C   -1.054761   1.036454
     2  H    0.350552  -0.011797
     3  H    0.350535  -0.011864
     4  H    0.350506  -0.011897
     5  H    0.003167  -1.000896
 Sum of Mulliken charges =  -0.00000  -0.00000

 Dipole moment (field-independent basis, Debye):
    X=             -0.0000    Y=              0.0143    Z=             -0.0000  Tot=              0.0143
 Quadrupole moment (field-independent basis, Debye-Ang):
   XX=             -8.6122   YY=            -10.5814   ZZ=             -8.6119
   XY=             -0.0059   XZ=              0.0001   YZ=             -0.0033

  Exact polarizability:  20.808  -0.001  24.025   0.000  -0.004  20.801
 Approx polarizability:  17.912  -0.004  17.326   0.000  -0.003  17.912

 ******    1 imaginary frequencies (negative Signs) ******

                      1                      2                      3
                      A                      A                      A
 Frequencies --   -171.6240                91.2197               115.5922
 Red. masses --      1.0646                 1.0138                 1.0139
 Frc consts  --      0.0185                 0.0050                 0.0080
 IR Inten    --   1.341                 0.1476E-02             0.7759E-02

                      4                      5                      6
                      A                      A                      A
 Frequencies --    527.4593              1409.6249              1409.7144
 Red. masses --      1.2245                 1.1019                 1.1019
 Frc consts  --      0.2007                 1.2900                 1.2902
 IR Inten    --   82.87                  2.888                  2.879

                      7                      8                      9
                      A                      A                      A
 Frequencies --   3122.1158              3303.2189              3303.4546
 Red. masses --      1.0078                 1.1186                 1.1185
 Frc consts  --      5.7881                 7.1909                 7.1918
 IR Inten    --  0.2701E-01              4.111                  4.075

 - Thermochemistry -
 -------------------
 Temperature   298.150 Kelvin.  Pressure   1.00000 Atm.
 Atom     1 has atomic number  6 and mass  12.00000

 Molecular mass:    16.03130 amu.
 Principal axes and moments of inertia in atomic units:
                           1         2         3
     Eigenvalues --    12.55346  49.99733  49.99790
           X           -0.00167   0.34163   0.93983
           Y            1.00000   0.00263   0.00082
           Z           -0.00220   0.93983  -0.34163
 This molecule is an asymmetric top.
 Rotational symmetry number  1.
 Rotational temperatures (Kelvin)      6.89960     1.73237     1.73235
 Rotational constants (GHZ):         143.76448    36.09675    36.09634
    1 imaginary frequencies ignored.
 Zero-point vibrational energy      79446.4 (Joules/Mol)
                                   18.98814 (Kcal/Mol)
 Warning -- explicit consideration of   3 degrees of freedom as
           vibrations may cause significant error
 Vibrational temperatures:    131.24   166.31   758.90  2028.13  2028.26
          (Kelvin)           4492.02  4752.59  4752.93

 Zero-point correction=                           0.030260 (Hartree/Particle)
 Thermal correction to Energy=                    0.034768
 Thermal correction to Enthalpy=                  0.035712
 Thermal correction to Gibbs Free Energy=         0.007306
 Sum of electronic and zero-point Energies=            -40.311525
 Sum of electronic and thermal Energies=               -40.307017
 Sum of electronic and thermal Enthalpies=             -40.306073
 Sum of electronic and thermal Free Energies=          -40.334479

                     E (Thermal)             CV                S
                      KCal/Mol        Cal/Mol-Kelvin    Cal/Mol-Kelvin
 Total                   21.817             11.248             59.786
 Electronic               0.000              0.000              0.000
 Translational            0.889              2.981             34.261
 Rotational               0.889              2.981             18.091
 Vibrational             20.040              5.286              7.434
 Vibration     1          0.602              1.955              3.634
 Vibration     2          0.608              1.936              3.173
 Vibration     3          0.882              1.189              0.593

 Normal termination of Gaussian 09 at Sat Jun  3 08:54:47 2023.
