 Gaussian 09, Revision D.01,
 Gaussian 09:  EM64L-G09RevD.01 24-Apr-2013

 ----------------------------------------------------------------------
 # uwb97xd/aug-cc-pvtz opt=(noeig,intern,maxcyc=50) # int=ultrafine nos
 ym iop(7/33=1)
 ----------------------------------------------------------------------

 ------
 geom 0
 ------
 Symbolic Z-matrix:
 Charge =  0 Multiplicity = 3

 SCF Done:  E(UwB97XD) =  -40.3419793192     A.U. after   10 cycles

 Alpha  occ. eigenvalues --  -10.29562  -0.78676  -0.50921  -0.50913  -0.40605
 Alpha  occ. eigenvalues --   -0.31505
 Alpha virt. eigenvalues --    0.02992   0.04910   0.04911   0.05385   0.09145
 Alpha virt. eigenvalues --    0.13054   0.13056   0.13265   0.19415   0.19415
 Alpha virt. eigenvalues --    0.19422   0.20090   0.20090   0.21811   0.25913

  Beta  occ. eigenvalues --  -10.28441  -0.74176  -0.49696  -0.49688
  Beta virt. eigenvalues --   -0.03383  -0.00037   0.04420   0.05674   0.05675
  Beta virt. eigenvalues --    0.12859   0.13996   0.13998   0.14305   0.14593
  Beta virt. eigenvalues --    0.20350   0.20351   0.24098   0.25438   0.25438

 Mulliken charges and spin densities:
               1          2
     1  C   -1.047527   1.025072
     2  H    0.349177  -0.008312
     3  H    0.349168  -0.008358
     4  H    0.349182  -0.008402
     5  H   -0.000001   1.000001
 Sum of Mulliken charges =  -0.00000   2.00000

 Dipole moment (field-independent basis, Debye):
    X=              0.0001    Y=             -0.0018    Z=              0.0000  Tot=              0.0018
 Quadrupole moment (field-independent basis, Debye-Ang):
   XX=             -8.6098   YY=            -10.5153   ZZ=             -8.6102
   XY=              0.0032   XZ=              0.0009   YZ=              0.0019

 Optimization completed.
    -- Stationary point found.

                         Z-Matrix orientation:
 ---------------------------------------------------------------------
 Center     Atomic      Atomic             Coordinates (Angstroms)
 Number     Number       Type             X           Y           Z
 ---------------------------------------------------------------------
      1          6           0        0.000000    0.000000    0.000000
      2          1           0        0.000000    0.000000    1.078200
      3          1           0        0.934011    0.000000   -0.538645
      4          1           0       -0.933548   -0.003135   -0.539437
      5          1           0        0.040456   -9.999853    0.036146
 ---------------------------------------------------------------------

 Normal termination of Gaussian 09 at Sat Jun  3 09:00:24 2023.
