 Gaussian 09, Revision D.01,
 Gaussian 09:  EM64L-G09RevD.01 24-Apr-2013

 ----------------------------------------------------------------------
 # uwb97xd/aug-cc-pvtz opt=(noeig,intern,maxcyc=50) # int=ultrafine nos
 ym freq iop(7/33=1)
 ----------------------------------------------------------------------

 ------
 geom 0
 ------
 Symbolic Z-matrix:
 Charge =  0 Multiplicity = 3

 SCF Done:  E(UwB97XD) =  -40.3400204294     A.U. after   10 cycles
 SCF Done:  E(UwB97XD) =  -40.3407784874     A.U. after    9 cycles
 SCF Done:  E(UwB97XD) =  -40.3416847106     A.U. after   11 cycles
 SCF Done:  E(UwB97XD) =  -40.3418738594     A.U. after    9 cycles
 SCF Done:  E(UwB97XD) =  -40.3419711312     A.U. after    9 cycles
 SCF Done:  E(UwB97XD) =  -40.3419788370     A.U. after    8 cycles
 SCF Done:  E(UwB97XD) =  -40.3419793076     A.U. after    8 cycles
 SCF Done:  E(UwB97XD) =  -40.3419793979     A.U. after    8 cycles
 Optimization completed.
    -- Stationary point found.
 Normal termination of Gaussian 09 at Sat Jun  3 08:55:55 2023.

 ----------------------------------------------------------------------
 #N Geom=AllCheck Guess=TCheck SCRF=Check Test GenChk UwB97XD/Aug-CC-pV
 TZ Freq
 ----------------------------------------------------------------------

 Structure from the checkpoint file:  "tmp.chk"
 ------
 geom 0
 ------
 Charge =  0 Multiplicity = 3

                          Input orientation:
 ---------------------------------------------------------------------
 Center     Atomic      Atomic             Coordinates (Angstroms)
 Number     Number       Type             X           Y           Z
 ---------------------------------------------------------------------
      1          6           0        0.000000    0.000000    0.000000
      2          1           0        0.000000    0.000000    1.078258
      3          1           0        0.933790    0.000000   -0.539166
      4          1           0       -0.933759    0.000066   -0.539214
      5          1           0        0.040448   -9.999853    0.036150
 ---------------------------------------------------------------------

 SCF Done:  E(UwB97XD) =  -40.3419793979     A.U. after    1 cycles

 Alpha  occ. eigenvalues --  -10.29564  -0.78675  -0.50917  -0.50915  -0.40605
 Alpha  occ. eigenvalues --   -0.31505
 Alpha virt. eigenvalues --    0.02992   0.04910   0.04910   0.05385   0.09145
 Alpha virt. eigenvalues --    0.13055   0.13056   0.13265   0.19415   0.19415
 Alpha virt. eigenvalues --    0.19422   0.20089   0.20089   0.21810   0.25913

  Beta  occ. eigenvalues --  -10.28443  -0.74174  -0.49692  -0.49689
  Beta virt. eigenvalues --   -0.03386  -0.00037   0.04420   0.05675   0.05675
  Beta virt. eigenvalues --    0.12858   0.13997   0.13997   0.14306   0.14591
  Beta virt. eigenvalues --    0.20350   0.20350   0.24096   0.25438   0.25438

 Mulliken charges and spin densities:
               1          2
     1  C   -1.047512   1.025097
     2  H    0.349179  -0.008329
     3  H    0.349167  -0.008384
     4  H    0.349167  -0.008385
     5  H   -0.000001   1.000001
 Sum of Mulliken charges =  -0.00000   2.00000

 Dipole moment (field-independent basis, Debye):
    X=              0.0000    Y=              0.0005    Z=             -0.0000  Tot=              0.0005
 Quadrupole moment (field-independent basis, Debye-Ang):
   XX=             -8.6102   YY=            -10.5156   ZZ=             -8.6098
   XY=             -0.0000   XZ=              0.0001   YZ=              0.0000

  Exact polarizability:  21.171  -0.000  21.583   0.000  -0.000  21.165
 Approx polarizability:  17.874  -0.000  16.985   0.000  -0.000  17.874

 ******    1 imaginary frequencies (negative Signs) ******

                      1                      2                      3
                      A                      A                      A
 Frequencies --     -0.8461                43.1416                83.9716
 Red. masses --      1.0564                 1.0087                 1.0087
 Frc consts  --      0.0000                 0.0011                 0.0042
 IR Inten    --  0.1854E-05             0.4259E-05             0.3269E-02

                      4                      5                      6
                      A                      A                      A
 Frequencies --    527.6989              1409.8095              1409.9070
 Red. masses --      1.2356                 1.1019                 1.1019
 Frc consts  --      0.2027                 1.2904                 1.2905
 IR Inten    --   79.97                  2.969                  2.958

                      7                      8                      9
                      A                      A                      A
 Frequencies --   3122.1552              3303.2688              3303.5060
 Red. masses --      1.0078                 1.1186                 1.1185
 Frc consts  --      5.7882                 7.1911                 7.1920
 IR Inten    --  0.2501E-03              4.444                  4.409

 - Thermochemistry -
 -------------------
 Temperature   298.150 Kelvin.  Pressure   1.00000 Atm.
 Atom     1 has atomic number  6 and mass  12.00000

 Molecular mass:    16.03130 amu.
 Principal axes and moments of inertia in atomic units:
                           1         2         3
     Eigenvalues --    12.55301 343.55189 343.55271
           X           -0.00412   0.00674   0.99997
           Y            0.99998   0.00371   0.00410
           Z           -0.00368   0.99997  -0.00676
 This molecule is an asymmetric top.
 Rotational symmetry number  1.
 Rotational temperatures (Kelvin)      6.89984     0.25211     0.25211
 Rotational constants (GHZ):         143.76955     5.25318     5.25317
    1 imaginary frequencies ignored.
 Zero-point vibrational energy      78974.2 (Joules/Mol)
                                   18.87529 (Kcal/Mol)
 Warning -- explicit consideration of   3 degrees of freedom as
           vibrations may cause significant error
 Vibrational temperatures:     62.07   120.82   759.24  2028.40  2028.54
          (Kelvin)           4492.08  4752.66  4753.00

 Zero-point correction=                           0.030080 (Hartree/Particle)
 Thermal correction to Energy=                    0.034746
 Thermal correction to Enthalpy=                  0.035690
 Thermal correction to Gibbs Free Energy=         0.003430
 Sum of electronic and zero-point Energies=            -40.311900
 Sum of electronic and thermal Energies=               -40.307233
 Sum of electronic and thermal Enthalpies=             -40.306289
 Sum of electronic and thermal Free Energies=          -40.338549

                     E (Thermal)             CV                S
                      KCal/Mol        Cal/Mol-Kelvin    Cal/Mol-Kelvin
 Total                   21.803             11.295             67.897
 Electronic               0.000              0.000              2.183
 Translational            0.889              2.981             34.261
 Rotational               0.889              2.981             21.921
 Vibrational             20.026              5.334              9.532
 Vibration     1          0.595              1.980              5.109
 Vibration     2          0.601              1.960              3.796
 Vibration     3          0.883              1.189              0.592

 Normal termination of Gaussian 09 at Sat Jun  3 08:56:10 2023.
