 Gaussian 09, Revision D.01,
 Gaussian 09:  EM64L-G09RevD.01 24-Apr-2013

 ----------------------------------------------------------------------
 # uwb97xd/aug-cc-pvtz opt=(noeig,intern,maxcyc=50) # int=ultrafine nos
 ym iop(7/33=1) guess=(mix,always)
 ----------------------------------------------------------------------

 ------
 geom 0
 ------
 Symbolic Z-matrix:
 Charge =  0 Multiplicity = 1

 SCF Done:  E(UwB97XD) =  -79.6802350242     A.U. after   11 cycles

 Alpha  occ. eigenvalues --  -10.29463 -10.28356  -0.78457  -0.73995  -0.50731
 Alpha  occ. eigenvalues --   -0.50722  -0.49502  -0.49494  -0.31238
 Alpha virt. eigenvalues --    0.00180   0.03271   0.04670   0.04673   0.05318
 Alpha virt. eigenvalues --    0.06715   0.06721   0.11249   0.12391   0.12410
 Alpha virt. eigenvalues --    0.13038   0.13935   0.13945   0.15006   0.16049

  Beta  occ. eigenvalues --  -10.29461 -10.28358  -0.78454  -0.73998  -0.50728
  Beta  occ. eigenvalues --   -0.50720  -0.49505  -0.49496  -0.31236
  Beta virt. eigenvalues --    0.00176   0.03272   0.04670   0.04673   0.05316
  Beta virt. eigenvalues --    0.06715   0.06721   0.11246   0.12391   0.12407
  Beta virt. eigenvalues --    0.13039   0.13935   0.13942   0.15005   0.16043

 Mulliken charges and spin densities:
               1          2
     1  C   -1.064975  -1.029272
     2  H    0.355008   0.012620
     3  H    0.355032   0.012569
     4  H    0.354949   0.012568
     5  C   -1.064801   1.029360
     6  H    0.354857  -0.012666
     7  H    0.355085  -0.012468
     8  H    0.354846  -0.012711
 Sum of Mulliken charges =  -0.00000   0.00000

 Dipole moment (field-independent basis, Debye):
    X=              0.0001    Y=             -0.0045    Z=              0.0001  Tot=              0.0045
 Quadrupole moment (field-independent basis, Debye-Ang):
   XX=            -14.4202   YY=            -18.1168   ZZ=            -14.4188
   XY=              0.0188   XZ=              0.0006   YZ=              0.0115

 Optimization completed.
    -- Stationary point found.

                         Z-Matrix orientation:
 ---------------------------------------------------------------------
 Center     Atomic      Atomic             Coordinates (Angstroms)
 Number     Number       Type             X           Y           Z
 ---------------------------------------------------------------------
      1          6           0        0.000000    0.000000    0.000000
      2          1           0        0.000000    0.000000    1.078200
      3          1           0        0.934011    0.000000   -0.538645
      4          1           0       -0.933548   -0.003135   -0.539437
      5          6           0        0.015387   -3.799963   -0.006679
      6          1           0       -0.914262   -3.805980    0.539428
      7          1           0        0.952856   -3.790142    0.525834
      8          1           0        0.007726   -3.806899   -1.084829
 ---------------------------------------------------------------------

 Normal termination of Gaussian 09 at Sat May 27 09:31:36 2023.
