 Gaussian 09, Revision D.01,
 Gaussian 09:  EM64L-G09RevD.01 24-Apr-2013

 ----------------------------------------------------------------------
 # uwb97xd/aug-cc-pvtz opt=(noeig,intern,maxcyc=50) # int=ultrafine nos
 ym freq iop(7/33=1) guess=(mix,always)
 ----------------------------------------------------------------------

 ------
 geom 0
 ------
 Symbolic Z-matrix:
 Charge =  0 Multiplicity = 1

 SCF Done:  E(UwB97XD) =  -79.6672101874     A.U. after   10 cycles
 SCF Done:  E(UwB97XD) =  -79.6733755137     A.U. after   10 cycles
 SCF Done:  E(UwB97XD) =  -79.6768416026     A.U. after   11 cycles
 SCF Done:  E(UwB97XD) =  -79.6787179009     A.U. after   10 cycles
 SCF Done:  E(UwB97XD) =  -79.6794812543     A.U. after   10 cycles
 SCF Done:  E(UwB97XD) =  -79.6801651246     A.U. after   10 cycles
 SCF Done:  E(UwB97XD) =  -79.6802291766     A.U. after   10 cycles
 SCF Done:  E(UwB97XD) =  -79.6802322952     A.U. after   11 cycles
 SCF Done:  E(UwB97XD) =  -79.6802354042     A.U. after   11 cycles
 Optimization completed.
    -- Stationary point found.
 Normal termination of Gaussian 09 at Sat May 27 09:04:58 2023.

 ----------------------------------------------------------------------
 #N Geom=AllCheck Guess=TCheck SCRF=Check Test GenChk UwB97XD/Aug-CC-pV
 TZ Freq
 ----------------------------------------------------------------------

 Structure from the checkpoint file:  "tmp.chk"
 ------
 geom 0
 ------
 Charge =  0 Multiplicity = 1

                          Input orientation:
 ---------------------------------------------------------------------
 Center     Atomic      Atomic             Coordinates (Angstroms)
 Number     Number       Type             X           Y           Z
 ---------------------------------------------------------------------
      1          6           0        0.000000    0.000000    0.000000
      2          1           0        0.000000    0.000000    1.078166
      3          1           0        0.933988    0.000000   -0.538744
      4          1           0       -0.933496    0.006801   -0.539482
      5          6           0        0.015387   -3.799963   -0.006681
      6          1           0       -0.914238   -3.805980    0.539412
      7          1           0        0.952788   -3.790142    0.526016
      8          1           0        0.007880   -3.810013   -1.084793
 ---------------------------------------------------------------------

 SCF Done:  E(UwB97XD) =  -79.6802354042     A.U. after    1 cycles

 Alpha  occ. eigenvalues --  -10.29460 -10.28355  -0.78453  -0.73995  -0.50727
 Alpha  occ. eigenvalues --   -0.50719  -0.49503  -0.49490  -0.31234
 Alpha virt. eigenvalues --    0.00180   0.03272   0.04670   0.04673   0.05315
 Alpha virt. eigenvalues --    0.06714   0.06720   0.11250   0.12397   0.12414
 Alpha virt. eigenvalues --    0.13040   0.13933   0.13941   0.15004   0.16038

  Beta  occ. eigenvalues --  -10.29460 -10.28355  -0.78453  -0.73995  -0.50729
  Beta  occ. eigenvalues --   -0.50717  -0.49502  -0.49493  -0.31234
  Beta virt. eigenvalues --    0.00179   0.03272   0.04670   0.04673   0.05315
  Beta virt. eigenvalues --    0.06714   0.06720   0.11250   0.12396   0.12415
  Beta virt. eigenvalues --    0.13040   0.13932   0.13941   0.15004   0.16038

 Mulliken charges and spin densities:
               1          2
     1  C   -1.064600   1.029366
     2  H    0.354952  -0.012617
     3  H    0.354954  -0.012577
     4  H    0.354692  -0.012702
     5  C   -1.064609  -1.029344
     6  H    0.354812   0.012627
     7  H    0.355067   0.012510
     8  H    0.354733   0.012738
 Sum of Mulliken charges =  -0.00000  -0.00000

 Dipole moment (field-independent basis, Debye):
    X=              0.0000    Y=              0.0004    Z=              0.0001  Tot=              0.0004
 Quadrupole moment (field-independent basis, Debye-Ang):
   XX=            -14.4209   YY=            -18.1014   ZZ=            -14.4184
   XY=              0.0090   XZ=              0.0004   YZ=              0.0093

  Exact polarizability:  31.308  -0.041  41.192   0.001   0.027  31.301
 Approx polarizability:  29.520  -0.010  31.224   0.001   0.012  29.522

 ******    1 imaginary frequencies (negative Signs) ******

                      1                      2                      3
                      A                      A                      A
 Frequencies --    -88.7522                 6.8203               108.7027
 Red. masses --      4.1206                 1.0078                 1.0079
 Frc consts  --      0.0191                 0.0000                 0.0070
 IR Inten    --  0.1265E-03             0.6434E-03             0.7913E-03

                      4                      5                      6
                      A                      A                      A
 Frequencies --    122.5788               129.2859               142.1608
 Red. masses --      1.0312                 1.0098                 1.0307
 Frc consts  --      0.0091                 0.0099                 0.0123
 IR Inten    --  0.3752E-02             0.3838E-02             0.3081E-03

                      7                      8                      9
                      A                      A                      A
 Frequencies --    518.7269               526.3284              1408.6917
 Red. masses --      1.2005                 1.2355                 1.1019
 Frc consts  --      0.1903                 0.2017                 1.2884
 IR Inten    --  0.1864                  161.9                  5.423

                     10                     11                     12
                      A                      A                      A
 Frequencies --   1409.0279              1410.3185              1410.6471
 Red. masses --      1.1019                 1.1017                 1.1017
 Frc consts  --      1.2889                 1.2911                 1.2916
 IR Inten    --   5.327                 0.5971E-01             0.1529E-01

                     13                     14                     15
                      A                      A                      A
 Frequencies --   3123.1424              3123.4891              3304.2662
 Red. masses --      1.0078                 1.0078                 1.1186
 Frc consts  --      5.7919                 5.7932                 7.1958
 IR Inten    --  0.1231                 0.7575E-04              1.074

                     16                     17                     18
                      A                      A                      A
 Frequencies --   3304.3142              3304.8396              3304.8971
 Red. masses --      1.1186                 1.1186                 1.1185
 Frc consts  --      7.1958                 7.1980                 7.1980
 IR Inten    --   1.241                  6.319                  6.433

 - Thermochemistry -
 -------------------
 Temperature   298.150 Kelvin.  Pressure   1.00000 Atm.
 Atom     1 has atomic number  6 and mass  12.00000

 Molecular mass:    30.04695 amu.
 Principal axes and moments of inertia in atomic units:
                           1         2         3
     Eigenvalues --    25.10212 400.07975 400.08461
           X           -0.00410   0.19103   0.98158
           Y            0.99999  -0.00107   0.00438
           Z            0.00189   0.98158  -0.19102
 This molecule is an asymmetric top.
 Rotational symmetry number  1.
 Rotational temperatures (Kelvin)      3.45046     0.21649     0.21649
 Rotational constants (GHZ):          71.89597     4.51095     4.51090
    1 imaginary frequencies ignored.
 Zero-point vibrational energy     159451.7 (Joules/Mol)
                                   38.10986 (Kcal/Mol)
 Warning -- explicit consideration of   7 degrees of freedom as
           vibrations may cause significant error
 Vibrational temperatures:      9.81   156.40   176.36   186.01   204.54
          (Kelvin)            746.33   757.27  2026.79  2027.27  2029.13
                             2029.60  4493.50  4494.00  4754.10  4754.17
                             4754.92  4755.00

 Zero-point correction=                           0.060732 (Hartree/Particle)
 Thermal correction to Energy=                    0.067685
 Thermal correction to Enthalpy=                  0.068630
 Thermal correction to Gibbs Free Energy=         0.030060
 Sum of electronic and zero-point Energies=            -79.619503
 Sum of electronic and thermal Energies=               -79.612550
 Sum of electronic and thermal Enthalpies=             -79.611606
 Sum of electronic and thermal Free Energies=          -79.650176

                     E (Thermal)             CV                S
                      KCal/Mol        Cal/Mol-Kelvin    Cal/Mol-Kelvin
 Total                   42.473             18.466             81.177
 Electronic               0.000              0.000              0.000
 Translational            0.889              2.981             36.134
 Rotational               0.889              2.981             22.912
 Vibrational             40.696             12.505             22.131
 Vibration     1          0.593              1.987              8.771
 Vibration     2          0.606              1.942              3.292
 Vibration     3          0.610              1.930              3.059
 Vibration     4          0.612              1.924              2.957
 Vibration     5          0.616              1.911              2.775
 Vibration     6          0.874              1.209              0.613
 Vibration     7          0.881              1.192              0.595

 Normal termination of Gaussian 09 at Sat May 27 09:06:30 2023.
