 Gaussian 09, Revision D.01,
 Gaussian 09:  EM64L-G09RevD.01 24-Apr-2013

 ----------------------------------------------------------------------
 # uwb97xd/aug-cc-pvtz opt=(noeig,intern,maxcyc=50) # int=ultrafine nos
 ym iop(7/33=1) guess=(mix,always)
 ----------------------------------------------------------------------

 ------
 geom 0
 ------
 Symbolic Z-matrix:
 Charge =  0 Multiplicity = 1

 SCF Done:  E(UwB97XD) =  -79.6846130357     A.U. after   11 cycles
 SCF Done:  E(UwB97XD) =  -79.6846193114     A.U. after   11 cycles
 SCF Done:  E(UwB97XD) =  -79.6846307376     A.U. after   11 cycles
 SCF Done:  E(UwB97XD) =  -79.6846411843     A.U. after   11 cycles
 SCF Done:  E(UwB97XD) =  -79.6846629921     A.U. after   11 cycles
 SCF Done:  E(UwB97XD) =  -79.6846729597     A.U. after   11 cycles
 Optimization completed.
    -- Stationary point found.

                         Z-Matrix orientation:
 ---------------------------------------------------------------------
 Center     Atomic      Atomic             Coordinates (Angstroms)
 Number     Number       Type             X           Y           Z
 ---------------------------------------------------------------------
      1          6           0        0.000000    0.000000    0.000000
      2          1           0        0.000000    0.000000    1.078200
      3          1           0        0.934011    0.000000   -0.538645
      4          1           0       -0.933548   -0.003135   -0.539437
      5          6           0        0.011925   -3.199868   -0.026458
      6          1           0       -0.916292   -3.200218    0.522113
      7          1           0        0.950812   -3.212244    0.503498
      8          1           0        0.001368   -3.190284   -1.104564
 ---------------------------------------------------------------------

 Alpha  occ. eigenvalues --  -10.29565 -10.28507  -0.78383  -0.73997  -0.50727
 Alpha  occ. eigenvalues --   -0.50720  -0.49410  -0.49399  -0.31076
 Alpha virt. eigenvalues --    0.00697   0.03297   0.04666   0.04669   0.05536
 Alpha virt. eigenvalues --    0.06872   0.06882   0.11012   0.12182   0.12208
 Alpha virt. eigenvalues --    0.13105   0.14073   0.14082   0.15381   0.16161

  Beta  occ. eigenvalues --  -10.29562 -10.28509  -0.78380  -0.74000  -0.50724
  Beta  occ. eigenvalues --   -0.50717  -0.49412  -0.49402  -0.31073
  Beta virt. eigenvalues --    0.00694   0.03298   0.04666   0.04669   0.05535
  Beta virt. eigenvalues --    0.06873   0.06882   0.11010   0.12180   0.12205
  Beta virt. eigenvalues --    0.13106   0.14072   0.14081   0.15378   0.16156

 Mulliken charges and spin densities:
               1          2
     1  C   -1.089863  -0.984404
     2  H    0.363119   0.012178
     3  H    0.363370   0.011988
     4  H    0.363431   0.012304
     5  C   -1.089835   0.984498
     6  H    0.363338  -0.012063
     7  H    0.363007  -0.012268
     8  H    0.363434  -0.012233
 Sum of Mulliken charges =  -0.00000   0.00000

 Dipole moment (field-independent basis, Debye):
    X=             -0.0000    Y=             -0.0043    Z=             -0.0001  Tot=              0.0043
 Quadrupole moment (field-independent basis, Debye-Ang):
   XX=            -14.4405   YY=            -18.0260   ZZ=            -14.4392
   XY=             -0.0099   XZ=              0.0005   YZ=             -0.0149

 Normal termination of Gaussian 09 at Sat May 27 09:30:58 2023.
