 Gaussian 09, Revision D.01,
 Gaussian 09:  EM64L-G09RevD.01 24-Apr-2013

 ----------------------------------------------------------------------
 # uwb97xd/aug-cc-pvtz opt=(noeig,intern,maxcyc=50) # int=ultrafine nos
 ym freq iop(7/33=1) guess=(mix,always)
 ----------------------------------------------------------------------

 ------
 geom 0
 ------
 Symbolic Z-matrix:
 Charge =  0 Multiplicity = 1

 SCF Done:  E(UwB97XD) =  -79.6734533879     A.U. after   11 cycles
 SCF Done:  E(UwB97XD) =  -79.6793792266     A.U. after   11 cycles
 SCF Done:  E(UwB97XD) =  -79.6824461918     A.U. after   12 cycles
 SCF Done:  E(UwB97XD) =  -79.6840665684     A.U. after   11 cycles
 SCF Done:  E(UwB97XD) =  -79.6847491433     A.U. after   11 cycles
 SCF Done:  E(UwB97XD) =  -79.6848568596     A.U. after   11 cycles
 SCF Done:  E(UwB97XD) =  -79.6848630354     A.U. after   11 cycles
 Optimization completed.
    -- Stationary point found.
 Normal termination of Gaussian 09 at Sat May 27 08:53:36 2023.

 ----------------------------------------------------------------------
 #N Geom=AllCheck Guess=TCheck SCRF=Check Test GenChk UwB97XD/Aug-CC-pV
 TZ Freq
 ----------------------------------------------------------------------

 Structure from the checkpoint file:  "tmp.chk"
 ------
 geom 0
 ------
 Charge =  0 Multiplicity = 1

                          Input orientation:
 ---------------------------------------------------------------------
 Center     Atomic      Atomic             Coordinates (Angstroms)
 Number     Number       Type             X           Y           Z
 ---------------------------------------------------------------------
      1          6           0        0.000000    0.000000    0.000000
      2          1           0        0.000000    0.000000    1.078105
      3          1           0        0.935319    0.000000   -0.536227
      4          1           0       -0.925795    0.128253   -0.537278
      5          6           0       -0.204596   -3.191031   -0.124332
      6          1           0       -1.134001   -3.193958    0.422026
      7          1           0        0.727930   -3.308471    0.403840
      8          1           0       -0.214682   -3.198816   -1.202310
 ---------------------------------------------------------------------

 SCF Done:  E(UwB97XD) =  -79.6848630354     A.U. after    1 cycles

 Alpha  occ. eigenvalues --  -10.29546 -10.28493  -0.78331  -0.73989  -0.50654
 Alpha  occ. eigenvalues --   -0.50635  -0.49360  -0.49345  -0.31055
 Alpha virt. eigenvalues --    0.00752   0.03314   0.04672   0.04674   0.05493
 Alpha virt. eigenvalues --    0.06848   0.06853   0.11021   0.12303   0.12318
 Alpha virt. eigenvalues --    0.13140   0.14046   0.14052   0.15315   0.16019

  Beta  occ. eigenvalues --  -10.29546 -10.28493  -0.78331  -0.73989  -0.50652
  Beta  occ. eigenvalues --   -0.50638  -0.49362  -0.49342  -0.31055
  Beta virt. eigenvalues --    0.00752   0.03314   0.04672   0.04674   0.05493
  Beta virt. eigenvalues --    0.06848   0.06853   0.11022   0.12303   0.12317
  Beta virt. eigenvalues --    0.13140   0.14047   0.14051   0.15315   0.16020

 Mulliken charges and spin densities:
               1          2
     1  C   -1.086660  -0.977730
     2  H    0.362231   0.011207
     3  H    0.362375   0.010874
     4  H    0.362048   0.010942
     5  C   -1.086683   0.977710
     6  H    0.362264  -0.010932
     7  H    0.362513  -0.010917
     8  H    0.361912  -0.011153
 Sum of Mulliken charges =   0.00000  -0.00000

 Dipole moment (field-independent basis, Debye):
    X=              0.0010    Y=              0.0001    Z=              0.0008  Tot=              0.0013
 Quadrupole moment (field-independent basis, Debye-Ang):
   XX=            -14.4688   YY=            -17.4206   ZZ=            -14.4555
   XY=             -0.1961   XZ=             -0.0077   YZ=             -0.1070

  Exact polarizability:  30.943   1.292  51.304   0.051   0.789  30.889
 Approx polarizability:  29.698   0.560  38.443   0.022   0.349  29.679

 ******    1 imaginary frequencies (negative Signs) ******

                      1                      2                      3
                      A                      A                      A
 Frequencies --   -185.4091                27.9960               212.3855
 Red. masses --      6.0273                 1.0078                 1.0083
 Frc consts  --      0.1221                 0.0005                 0.0268
 IR Inten    --  0.1216E-03             0.1677E-03             0.5348

                      4                      5                      6
                      A                      A                      A
 Frequencies --    227.5780               264.6677               277.2465
 Red. masses --      1.0084                 1.0496                 1.0497
 Frc consts  --      0.0308                 0.0433                 0.0475
 IR Inten    --  0.5608                 0.1459E-02             0.2258E-03

                      7                      8                      9
                      A                      A                      A
 Frequencies --    539.4633               572.1436              1408.5812
 Red. masses --      1.0990                 1.2352                 1.1015
 Frc consts  --      0.1884                 0.2382                 1.2877
 IR Inten    --  0.3952E-02              122.9                  5.238

                     10                     11                     12
                      A                      A                      A
 Frequencies --   1409.2642              1411.7711              1412.4663
 Red. masses --      1.1015                 1.1010                 1.1008
 Frc consts  --      1.2889                 1.2929                 1.2940
 IR Inten    --   5.123                 0.6327E-01             0.3055E-01

                     13                     14                     15
                      A                      A                      A
 Frequencies --   3125.6441              3125.9113              3305.6528
 Red. masses --      1.0081                 1.0081                 1.1185
 Frc consts  --      5.8026                 5.8038                 7.2014
 IR Inten    --  0.2945E-01             0.1325E-03              1.122

                     16                     17                     18
                      A                      A                      A
 Frequencies --   3305.7371              3306.5019              3306.6163
 Red. masses --      1.1186                 1.1184                 1.1184
 Frc consts  --      7.2020                 7.2040                 7.2048
 IR Inten    --   1.171                  5.527                  5.473

 - Thermochemistry -
 -------------------
 Temperature   298.150 Kelvin.  Pressure   1.00000 Atm.
 Atom     1 has atomic number  6 and mass  12.00000

 Molecular mass:    30.04695 amu.
 Principal axes and moments of inertia in atomic units:
                           1         2         3
     Eigenvalues --    25.05849 290.21239 290.22119
           X            0.06388  -0.16293   0.98457
           Y            0.99720  -0.02809  -0.06935
           Z            0.03895   0.98624   0.16068
 This molecule is an asymmetric top.
 Rotational symmetry number  1.
 Rotational temperatures (Kelvin)      3.45647     0.29845     0.29844
 Rotational constants (GHZ):          72.02115     6.21869     6.21850
    1 imaginary frequencies ignored.
 Zero-point vibrational energy     162929.1 (Joules/Mol)
                                   38.94100 (Kcal/Mol)
 Warning -- explicit consideration of   7 degrees of freedom as
           vibrations may cause significant error
 Vibrational temperatures:     40.28   305.57   327.43   380.80   398.90
          (Kelvin)            776.17   823.19  2026.63  2027.61  2031.22
                             2032.22  4497.10  4497.48  4756.09  4756.21
                             4757.31  4757.48

 Zero-point correction=                           0.062056 (Hartree/Particle)
 Thermal correction to Energy=                    0.068148
 Thermal correction to Enthalpy=                  0.069092
 Thermal correction to Gibbs Free Energy=         0.034592
 Sum of electronic and zero-point Energies=            -79.622807
 Sum of electronic and thermal Energies=               -79.616715
 Sum of electronic and thermal Enthalpies=             -79.615771
 Sum of electronic and thermal Free Energies=          -79.650271

                     E (Thermal)             CV                S
                      KCal/Mol        Cal/Mol-Kelvin    Cal/Mol-Kelvin
 Total                   42.763             17.683             72.610
 Electronic               0.000              0.000              0.000
 Translational            0.889              2.981             36.134
 Rotational               0.889              2.981             22.272
 Vibrational             40.986             11.722             14.204
 Vibration     1          0.593              1.984              5.967
 Vibration     2          0.643              1.822              2.023
 Vibration     3          0.651              1.799              1.898
 Vibration     4          0.671              1.738              1.631
 Vibration     5          0.678              1.716              1.551
 Vibration     6          0.895              1.163              0.566
 Vibration     7          0.928              1.092              0.500

 Normal termination of Gaussian 09 at Sat May 27 08:55:26 2023.
