 Gaussian 09, Revision D.01,
 Gaussian 09:  EM64L-G09RevD.01 24-Apr-2013

 ----------------------------------------------------------------------
 # uwb97xd/aug-cc-pvtz opt=(noeig,intern,maxcyc=50) # int=ultrafine nos
 ym iop(7/33=1) guess=(mix,always)
 ----------------------------------------------------------------------

 ------
 geom 0
 ------
 Symbolic Z-matrix:
 Charge =  0 Multiplicity = 1

 SCF Done:  E(UwB97XD) =  -40.3423468495     A.U. after   17 cycles

 Alpha  occ. eigenvalues --  -10.29790  -0.78796  -0.51044  -0.51037  -0.31642
 Alpha virt. eigenvalues --    0.02693   0.05067   0.05253   0.05272   0.11504
 Alpha virt. eigenvalues --    0.13032   0.13097   0.13099   0.14626   0.19996
 Alpha virt. eigenvalues --    0.20019   0.22946   0.22949   0.27108   0.31568

  Beta  occ. eigenvalues --  -10.28686  -0.74347  -0.49835  -0.49827  -0.39990
  Beta virt. eigenvalues --   -0.00003   0.04215   0.05282   0.05292   0.06357
  Beta virt. eigenvalues --    0.13348   0.13362   0.13558   0.14840   0.19853
  Beta virt. eigenvalues --    0.19927   0.20207   0.20245   0.23916   0.29335

 Mulliken charges and spin densities:
               1          2
     1  C   -1.078881   1.016496
     2  H    0.358366  -0.008546
     3  H    0.358261  -0.008679
     4  H    0.359116  -0.008100
     5  H    0.003137  -0.991172
 Sum of Mulliken charges =  -0.00000   0.00000

 Dipole moment (field-independent basis, Debye):
    X=              0.0013    Y=              0.0828    Z=              0.0007  Tot=              0.0828
 Quadrupole moment (field-independent basis, Debye-Ang):
   XX=             -8.6204   YY=            -10.6666   ZZ=             -8.6208
   XY=              0.0007   XZ=              0.0009   YZ=              0.0006

 Optimization completed.
    -- Stationary point found.

                         Z-Matrix orientation:
 ---------------------------------------------------------------------
 Center     Atomic      Atomic             Coordinates (Angstroms)
 Number     Number       Type             X           Y           Z
 ---------------------------------------------------------------------
      1          6           0        0.000000    0.000000    0.000000
      2          1           0        0.000000    0.000000    1.078200
      3          1           0        0.934011    0.000000   -0.538645
      4          1           0       -0.933548   -0.003135   -0.539437
      5          1           0       -0.052936   -3.199447   -0.027199
 ---------------------------------------------------------------------

 Normal termination of Gaussian 09 at Sat Jun  3 08:59:56 2023.
