 Gaussian 09, Revision D.01,
 Gaussian 09:  EM64L-G09RevD.01 24-Apr-2013

 ----------------------------------------------------------------------
 # uwb97xd/aug-cc-pvtz opt=(noeig,intern,maxcyc=50) # int=ultrafine nos
 ym freq iop(7/33=1) guess=(mix,always)
 ----------------------------------------------------------------------

 ------
 geom 0
 ------
 Symbolic Z-matrix:
 Charge =  0 Multiplicity = 1

 SCF Done:  E(UwB97XD) =  -40.3405159476     A.U. after   17 cycles
 SCF Done:  E(UwB97XD) =  -40.3412587092     A.U. after   16 cycles
 SCF Done:  E(UwB97XD) =  -40.3421187729     A.U. after   16 cycles
 SCF Done:  E(UwB97XD) =  -40.3422760594     A.U. after   18 cycles
 SCF Done:  E(UwB97XD) =  -40.3423520264     A.U. after   17 cycles
 SCF Done:  E(UwB97XD) =  -40.3423558560     A.U. after   17 cycles
 SCF Done:  E(UwB97XD) =  -40.3423561879     A.U. after   17 cycles
 Optimization completed.
    -- Stationary point found.
 Normal termination of Gaussian 09 at Sat Jun  3 08:54:08 2023.

 ----------------------------------------------------------------------
 #N Geom=AllCheck Guess=TCheck SCRF=Check Test GenChk UwB97XD/Aug-CC-pV
 TZ Freq
 ----------------------------------------------------------------------

 Structure from the checkpoint file:  "tmp.chk"
 ------
 geom 0
 ------
 Charge =  0 Multiplicity = 1

                          Input orientation:
 ---------------------------------------------------------------------
 Center     Atomic      Atomic             Coordinates (Angstroms)
 Number     Number       Type             X           Y           Z
 ---------------------------------------------------------------------
      1          6           0        0.000000    0.000000    0.000000
      2          1           0        0.000000    0.000000    1.078276
      3          1           0        0.933830    0.000000   -0.539118
      4          1           0       -0.933080    0.037464   -0.539106
      5          1           0       -0.052935   -3.199447   -0.027201
 ---------------------------------------------------------------------

 SCF Done:  E(UwB97XD) =  -40.3423561879     A.U. after    1 cycles

 Alpha  occ. eigenvalues --  -10.29796  -0.78796  -0.51042  -0.51035  -0.31647
 Alpha virt. eigenvalues --    0.02694   0.05062   0.05250   0.05254   0.11519
 Alpha virt. eigenvalues --    0.13037   0.13100   0.13101   0.14619   0.20006
 Alpha virt. eigenvalues --    0.20011   0.22944   0.22945   0.27069   0.31618

  Beta  occ. eigenvalues --  -10.28691  -0.74347  -0.49832  -0.49825  -0.39967
  Beta virt. eigenvalues --   -0.00011   0.04209   0.05292   0.05294   0.06359
  Beta virt. eigenvalues --    0.13335   0.13339   0.13561   0.14796   0.19890
  Beta virt. eigenvalues --    0.19909   0.20221   0.20231   0.23917   0.29368

 Mulliken charges and spin densities:
               1          2
     1  C   -1.077502   1.016872
     2  H    0.358211  -0.008528
     3  H    0.358090  -0.008660
     4  H    0.358009  -0.008660
     5  H    0.003193  -0.991023
 Sum of Mulliken charges =  -0.00000  -0.00000

 Dipole moment (field-independent basis, Debye):
    X=              0.0020    Y=              0.1120    Z=              0.0010  Tot=              0.1121
 Quadrupole moment (field-independent basis, Debye-Ang):
   XX=             -8.6229   YY=            -10.6667   ZZ=             -8.6208
   XY=             -0.0405   XZ=             -0.0005   YZ=             -0.0233

  Exact polarizability:  20.790   0.109  27.301  -0.001   0.060  20.783
 Approx polarizability:  18.000   0.014  19.079   0.000   0.006  18.002

 ******    1 imaginary frequencies (negative Signs) ******

                      1                      2                      3
                      A                      A                      A
 Frequencies --   -307.6967               150.8680               169.1538
 Red. masses --      1.0749                 1.0160                 1.0161
 Frc consts  --      0.0600                 0.0136                 0.0171
 IR Inten    --   7.416                 0.1352E-01             0.1860E-01

                      4                      5                      6
                      A                      A                      A
 Frequencies --    540.0787              1409.6860              1410.0414
 Red. masses --      1.2112                 1.1018                 1.1017
 Frc consts  --      0.2081                 1.2900                 1.2906
 IR Inten    --   81.98                  2.952                  2.942

                      7                      8                      9
                      A                      A                      A
 Frequencies --   3122.7086              3304.0641              3304.2175
 Red. masses --      1.0078                 1.1186                 1.1185
 Frc consts  --      5.7904                 7.1948                 7.1952
 IR Inten    --  0.1535E-01              3.570                  3.547

 - Thermochemistry -
 -------------------
 Temperature   298.150 Kelvin.  Pressure   1.00000 Atm.
 Atom     1 has atomic number  6 and mass  12.00000

 Molecular mass:    16.03130 amu.
 Principal axes and moments of inertia in atomic units:
                           1         2         3
     Eigenvalues --    12.55164  40.86712  40.87010
           X            0.01577  -0.04033   0.99906
           Y            0.99985  -0.00717  -0.01607
           Z            0.00781   0.99916   0.04022
 This molecule is an asymmetric top.
 Rotational symmetry number  1.
 Rotational temperatures (Kelvin)      6.90060     2.11940     2.11925
 Rotational constants (GHZ):         143.78525    44.16121    44.15799
    1 imaginary frequencies ignored.
 Zero-point vibrational energy      80214.5 (Joules/Mol)
                                   19.17173 (Kcal/Mol)
 Warning -- explicit consideration of   3 degrees of freedom as
           vibrations may cause significant error
 Vibrational temperatures:    217.07   243.37   777.05  2028.22  2028.73
          (Kelvin)           4492.88  4753.81  4754.03

 Zero-point correction=                           0.030552 (Hartree/Particle)
 Thermal correction to Energy=                    0.034848
 Thermal correction to Enthalpy=                  0.035792
 Thermal correction to Gibbs Free Energy=         0.008397
 Sum of electronic and zero-point Energies=            -40.311804
 Sum of electronic and thermal Energies=               -40.307509
 Sum of electronic and thermal Enthalpies=             -40.306564
 Sum of electronic and thermal Free Energies=          -40.333959

                     E (Thermal)             CV                S
                      KCal/Mol        Cal/Mol-Kelvin    Cal/Mol-Kelvin
 Total                   21.867             11.110             57.657
 Electronic               0.000              0.000              0.000
 Translational            0.889              2.981             34.261
 Rotational               0.889              2.981             17.690
 Vibrational             20.090              5.148              5.706
 Vibration     1          0.618              1.902              2.661
 Vibration     2          0.625              1.880              2.445
 Vibration     3          0.895              1.161              0.565

 Normal termination of Gaussian 09 at Sat Jun  3 08:54:26 2023.
