 Gaussian 09, Revision D.01,
 Gaussian 09:  EM64L-G09RevD.01 24-Apr-2013

 ----------------------------------------------------------------------
 # uwb97xd/aug-cc-pvtz opt=(noeig,intern,maxcyc=50) # int=ultrafine nos
 ym iop(7/33=1) guess=(mix,always)
 ----------------------------------------------------------------------

 ------
 geom 0
 ------
 Symbolic Z-matrix:
 Charge =  0 Multiplicity = 1

 SCF Done:  E(UwB97XD) =  -79.6928320487     A.U. after   14 cycles
 SCF Done:  E(UwB97XD) =  -79.7033961929     A.U. after   15 cycles
 SCF Done:  E(UwB97XD) =  -79.7079838575     A.U. after   15 cycles
 SCF Done:  E(UwB97XD) =  -79.7081337822     A.U. after   15 cycles
 SCF Done:  E(UwB97XD) =  -79.7082059601     A.U. after   15 cycles
 SCF Done:  E(UwB97XD) =  -79.7082130749     A.U. after   15 cycles
 SCF Done:  E(UwB97XD) =  -79.7082144488     A.U. after   15 cycles
 SCF Done:  E(UwB97XD) =  -79.7082162928     A.U. after   15 cycles
 SCF Done:  E(UwB97XD) =  -79.7082169845     A.U. after   15 cycles
 Optimization completed.
    -- Stationary point found.

                         Z-Matrix orientation:
 ---------------------------------------------------------------------
 Center     Atomic      Atomic             Coordinates (Angstroms)
 Number     Number       Type             X           Y           Z
 ---------------------------------------------------------------------
      1          6           0        0.000000    0.000000    0.000000
      2          1           0        0.000000    0.000000    1.078200
      3          1           0        0.934011    0.000000   -0.538645
      4          1           0       -0.933548   -0.003135   -0.539437
      5          6           0        0.003210   -2.399996    0.002932
      6          1           0       -0.929766   -2.401024    0.543367
      7          1           0        0.937467   -2.399659    0.541151
      8          1           0        0.002062   -2.402440   -1.075264
 ---------------------------------------------------------------------

 Alpha  occ. eigenvalues --  -10.29942 -10.29440  -0.78970  -0.73809  -0.51473
 Alpha  occ. eigenvalues --   -0.51469  -0.48501  -0.48496  -0.30107
 Alpha virt. eigenvalues --    0.01986   0.03283   0.04599   0.04599   0.06021
 Alpha virt. eigenvalues --    0.07034   0.07034   0.10506   0.11742   0.11743
 Alpha virt. eigenvalues --    0.13034   0.14176   0.14176   0.14534   0.16744

  Beta  occ. eigenvalues --  -10.29939 -10.29443  -0.78968  -0.73810  -0.51472
  Beta  occ. eigenvalues --   -0.51468  -0.48501  -0.48497  -0.30107
  Beta virt. eigenvalues --    0.01986   0.03283   0.04599   0.04599   0.06021
  Beta virt. eigenvalues --    0.07034   0.07034   0.10505   0.11741   0.11742
  Beta virt. eigenvalues --    0.13035   0.14176   0.14176   0.14533   0.16744

 Mulliken charges and spin densities:
               1          2
     1  C   -1.092534  -0.492029
     2  H    0.364191   0.013995
     3  H    0.364239   0.013997
     4  H    0.364252   0.014022
     5  C   -1.093549   0.491943
     6  H    0.364483  -0.013991
     7  H    0.364475  -0.013968
     8  H    0.364443  -0.013969
 Sum of Mulliken charges =  -0.00000   0.00000

 Dipole moment (field-independent basis, Debye):
    X=              0.0001    Y=             -0.0042    Z=              0.0001  Tot=              0.0042
 Quadrupole moment (field-independent basis, Debye-Ang):
   XX=            -14.3815   YY=            -18.3094   ZZ=            -14.3802
   XY=              0.0045   XZ=              0.0006   YZ=              0.0041

 Normal termination of Gaussian 09 at Sat May 27 09:25:39 2023.
