 Gaussian 09, Revision D.01,
 Gaussian 09:  EM64L-G09RevD.01 24-Apr-2013

 ----------------------------------------------------------------------
 # uwb97xd/aug-cc-pvtz opt=(noeig,intern,maxcyc=50) # int=ultrafine nos
 ym freq iop(7/33=1) guess=(mix,always)
 ----------------------------------------------------------------------

 ------
 geom 0
 ------
 Symbolic Z-matrix:
 Charge =  0 Multiplicity = 1

 SCF Done:  E(UwB97XD) =  -79.7207353804     A.U. after   17 cycles
 SCF Done:  E(UwB97XD) =  -79.7226932851     A.U. after   19 cycles
 SCF Done:  E(UwB97XD) =  -79.7231730531     A.U. after   18 cycles
 SCF Done:  E(UwB97XD) =  -79.7231803111     A.U. after   18 cycles
 Optimization completed.
    -- Stationary point found.
 Normal termination of Gaussian 09 at Sat May 27 08:44:15 2023.

 ----------------------------------------------------------------------
 #N Geom=AllCheck Guess=TCheck SCRF=Check Test GenChk UwB97XD/Aug-CC-pV
 TZ Freq
 ----------------------------------------------------------------------

 Structure from the checkpoint file:  "tmp.chk"
 ------
 geom 0
 ------
 Charge =  0 Multiplicity = 1

                          Input orientation:
 ---------------------------------------------------------------------
 Center     Atomic      Atomic             Coordinates (Angstroms)
 Number     Number       Type             X           Y           Z
 ---------------------------------------------------------------------
      1          6           0        0.000000    0.000000    0.000000
      2          1           0        0.000000    0.000000    1.080180
      3          1           0        0.971677    0.000000   -0.472373
      4          1           0       -0.752231    0.614929   -0.472544
      5          6           0       -0.789201   -2.212348   -0.492622
      6          1           0       -1.761018   -2.211307   -0.021075
      7          1           0       -0.035986   -2.826910   -0.021145
      8          1           0       -0.788205   -2.213851   -1.573022
 ---------------------------------------------------------------------

 SCF Done:  E(UwB97XD) =  -79.7231803112     A.U. after    1 cycles

 Alpha  occ. eigenvalues --  -10.30356 -10.30354  -0.78126  -0.74865  -0.50197
 Alpha  occ. eigenvalues --   -0.50180  -0.48174  -0.48156  -0.31573
 Alpha virt. eigenvalues --    0.02129   0.03354   0.04679   0.04680   0.05885
 Alpha virt. eigenvalues --    0.06876   0.06877   0.10493   0.12426   0.12430
 Alpha virt. eigenvalues --    0.13262   0.14210   0.14283   0.14284   0.16383

  Beta  occ. eigenvalues --  -10.30356 -10.30354  -0.78126  -0.74865  -0.50197
  Beta  occ. eigenvalues --   -0.50180  -0.48174  -0.48156  -0.31573
  Beta virt. eigenvalues --    0.02129   0.03354   0.04679   0.04680   0.05885
  Beta virt. eigenvalues --    0.06876   0.06877   0.10493   0.12426   0.12430
  Beta virt. eigenvalues --    0.13262   0.14210   0.14283   0.14284   0.16383

 Mulliken charges and spin densities:
               1          2
     1  C   -0.963395  -0.000001
     2  H    0.321108   0.000000
     3  H    0.321189   0.000000
     4  H    0.321090   0.000000
     5  C   -0.963398   0.000001
     6  H    0.321289  -0.000000
     7  H    0.321129  -0.000000
     8  H    0.320987  -0.000000
 Sum of Mulliken charges =  -0.00000  -0.00000

 Dipole moment (field-independent basis, Debye):
    X=              0.0003    Y=             -0.0001    Z=             -0.0001  Tot=              0.0003
 Quadrupole moment (field-independent basis, Debye-Ang):
   XX=            -14.7280   YY=            -15.1675   ZZ=            -14.6854
   XY=             -0.1805   XZ=             -0.0430   YZ=             -0.1124

  Exact polarizability:  33.786  11.697  62.454   2.605   7.319  31.253
 Approx polarizability:  34.253  12.302  64.359   2.737   7.679  31.576

 ******    1 imaginary frequencies (negative Signs) ******

                      1                      2                      3
                      A                      A                      A
 Frequencies --   -324.0704                73.0049               568.7529
 Red. masses --      6.3370                 1.0078                 1.0232
 Frc consts  --      0.3921                 0.0032                 0.1950
 IR Inten    --  0.1436E-04             0.4247E-03              10.49

                      4                      5                      6
                      A                      A                      A
 Frequencies --    571.3334               802.2299               803.6017
 Red. masses --      1.0232                 1.1473                 1.1473
 Frc consts  --      0.1968                 0.4350                 0.4365
 IR Inten    --   10.49                 0.2142E-04             0.1914E-03

                      7                      8                      9
                      A                      A                      A
 Frequencies --   1014.9281              1019.8778              1437.7774
 Red. masses --      1.2247                 1.0814                 1.0888
 Frc consts  --      0.7433                 0.6627                 1.3262
 IR Inten    --   24.42                 0.2528E-03              5.280

                     10                     11                     12
                      A                      A                      A
 Frequencies --   1438.5756              1444.0347              1444.8340
 Red. masses --      1.0888                 1.0796                 1.0796
 Frc consts  --      1.3275                 1.3264                 1.3278
 IR Inten    --   5.236                 0.5172E-01             0.3180E-01

                     13                     14                     15
                      A                      A                      A
 Frequencies --   3119.1777              3119.3196              3273.5067
 Red. masses --      1.0150                 1.0152                 1.1141
 Frc consts  --      5.8181                 5.8198                 7.0338
 IR Inten    --  0.5266E-01              23.95                  9.390

                     16                     17                     18
                      A                      A                      A
 Frequencies --   3273.6655              3275.4950              3275.6752
 Red. masses --      1.1150                 1.1147                 1.1155
 Frc consts  --      7.0406                 7.0461                 7.0521
 IR Inten    --   4.750                  7.252                  3.310

 - Thermochemistry -
 -------------------
 Temperature   298.150 Kelvin.  Pressure   1.00000 Atm.
 Atom     1 has atomic number  6 and mass  12.00000

 Molecular mass:    30.04695 amu.
 Principal axes and moments of inertia in atomic units:
                           1         2         3
     Eigenvalues --    24.13630 179.15852 179.16973
           X            0.32878  -0.51360   0.79254
           Y            0.92184  -0.00783  -0.38750
           Z            0.20523   0.85799   0.47088
 This molecule is an asymmetric top.
 Rotational symmetry number  1.
 Rotational temperatures (Kelvin)      3.58853     0.48345     0.48342
 Rotational constants (GHZ):          74.77289    10.07343    10.07280
    1 imaginary frequencies ignored.
 Zero-point vibrational energy     179175.4 (Joules/Mol)
                                   42.82395 (Kcal/Mol)
 Warning -- explicit consideration of   3 degrees of freedom as
           vibrations may cause significant error
 Vibrational temperatures:    105.04   818.31   822.02  1154.23  1156.20
          (Kelvin)           1460.25  1467.37  2068.64  2069.79  2077.64
                             2078.79  4487.80  4488.00  4709.84  4710.07
                             4712.70  4712.96

 Zero-point correction=                           0.068244 (Hartree/Particle)
 Thermal correction to Energy=                    0.072468
 Thermal correction to Enthalpy=                  0.073412
 Thermal correction to Gibbs Free Energy=         0.043415
 Sum of electronic and zero-point Energies=            -79.654936
 Sum of electronic and thermal Energies=               -79.650712
 Sum of electronic and thermal Enthalpies=             -79.649768
 Sum of electronic and thermal Free Energies=          -79.679765

                     E (Thermal)             CV                S
                      KCal/Mol        Cal/Mol-Kelvin    Cal/Mol-Kelvin
 Total                   45.474             12.497             63.134
 Electronic               0.000              0.000              0.000
 Translational            0.889              2.981             36.134
 Rotational               0.889              2.981             21.276
 Vibrational             43.697              6.536              5.724
 Vibration     1          0.599              1.967              4.071
 Vibration     2          0.925              1.099              0.507
 Vibration     3          0.927              1.093              0.502

 Normal termination of Gaussian 09 at Sat May 27 08:45:58 2023.
