 Gaussian 09, Revision D.01,
 Gaussian 09:  EM64L-G09RevD.01 24-Apr-2013

 ----------------------------------------------------------------------
 # uwb97xd/aug-cc-pvtz opt=(noeig,intern,maxcyc=50) # int=ultrafine nos
 ym iop(7/33=1) guess=(mix,always)
 ----------------------------------------------------------------------

 ------
 geom 0
 ------
 Symbolic Z-matrix:
 Charge =  0 Multiplicity = 1

 SCF Done:  E(UwB97XD) =  -79.6872067512     A.U. after   11 cycles
 SCF Done:  E(UwB97XD) =  -79.6872708917     A.U. after   11 cycles
 SCF Done:  E(UwB97XD) =  -79.6873690391     A.U. after   11 cycles
 SCF Done:  E(UwB97XD) =  -79.6875280569     A.U. after   12 cycles
 SCF Done:  E(UwB97XD) =  -79.6875952821     A.U. after   11 cycles
 SCF Done:  E(UwB97XD) =  -79.6875967000     A.U. after   12 cycles
 SCF Done:  E(UwB97XD) =  -79.6875987171     A.U. after   11 cycles
 SCF Done:  E(UwB97XD) =  -79.6867836642     A.U. after   11 cycles
 SCF Done:  E(UwB97XD) =  -79.6871307870     A.U. after   11 cycles
 SCF Done:  E(UwB97XD) =  -79.6873790018     A.U. after   12 cycles
 SCF Done:  E(UwB97XD) =  -79.6875352285     A.U. after   12 cycles
 SCF Done:  E(UwB97XD) =  -79.6875998283     A.U. after   11 cycles
 SCF Done:  E(UwB97XD) =  -79.6876022277     A.U. after   11 cycles
 SCF Done:  E(UwB97XD) =  -79.6876023155     A.U. after   11 cycles
 SCF Done:  E(UwB97XD) =  -79.6876024637     A.U. after   11 cycles
 SCF Done:  E(UwB97XD) =  -79.6876025541     A.U. after   11 cycles
 SCF Done:  E(UwB97XD) =  -79.6876025557     A.U. after   11 cycles
 Optimization completed.
    -- Stationary point found.

                         Z-Matrix orientation:
 ---------------------------------------------------------------------
 Center     Atomic      Atomic             Coordinates (Angstroms)
 Number     Number       Type             X           Y           Z
 ---------------------------------------------------------------------
      1          6           0        0.000000    0.000000    0.000000
      2          1           0        0.000000    0.000000    1.078200
      3          1           0        0.934011    0.000000   -0.538645
      4          1           0       -0.933548   -0.003135   -0.539437
      5          6           0        0.006547   -2.999993    0.001254
      6          1           0       -0.926112   -3.003530    0.542226
      7          1           0        0.941112   -2.998315    0.538933
      8          1           0        0.004779   -3.001267   -1.076944
 ---------------------------------------------------------------------

 Alpha  occ. eigenvalues --  -10.29607 -10.28587  -0.78368  -0.73991  -0.50766
 Alpha  occ. eigenvalues --   -0.50760  -0.49319  -0.49312  -0.30968
 Alpha virt. eigenvalues --    0.01013   0.03300   0.04660   0.04660   0.05627
 Alpha virt. eigenvalues --    0.06927   0.06927   0.10952   0.12116   0.12117
 Alpha virt. eigenvalues --    0.13108   0.14123   0.14123   0.15430   0.16242

  Beta  occ. eigenvalues --  -10.29605 -10.28590  -0.78366  -0.73994  -0.50764
  Beta  occ. eigenvalues --   -0.50757  -0.49321  -0.49313  -0.30965
  Beta virt. eigenvalues --    0.01012   0.03301   0.04660   0.04660   0.05626
  Beta virt. eigenvalues --    0.06927   0.06928   0.10950   0.12114   0.12115
  Beta virt. eigenvalues --    0.13109   0.14122   0.14123   0.15426   0.16238

 Mulliken charges and spin densities:
               1          2
     1  C   -1.091069  -0.953347
     2  H    0.363694   0.013127
     3  H    0.363736   0.013164
     4  H    0.363706   0.013185
     5  C   -1.091343   0.953309
     6  H    0.363731  -0.013156
     7  H    0.363779  -0.013139
     8  H    0.363767  -0.013143
 Sum of Mulliken charges =  -0.00000  -0.00000

 Dipole moment (field-independent basis, Debye):
    X=              0.0001    Y=             -0.0042    Z=              0.0001  Tot=              0.0042
 Quadrupole moment (field-independent basis, Debye-Ang):
   XX=            -14.4422   YY=            -18.0478   ZZ=            -14.4408
   XY=              0.0080   XZ=              0.0006   YZ=              0.0020

 Normal termination of Gaussian 09 at Sat May 27 09:34:40 2023.
