 Gaussian 09, Revision D.01,
 Gaussian 09:  EM64L-G09RevD.01 24-Apr-2013

 ----------------------------------------------------------------------
 # uwb97xd/aug-cc-pvtz opt=(noeig,intern,maxcyc=50) # int=ultrafine nos
 ym freq iop(7/33=1) guess=(mix,always)
 ----------------------------------------------------------------------

 ------
 geom 0
 ------
 Symbolic Z-matrix:
 Charge =  0 Multiplicity = 1

 SCF Done:  E(UwB97XD) =  -79.6782448564     A.U. after   11 cycles
 SCF Done:  E(UwB97XD) =  -79.6838198151     A.U. after   11 cycles
 SCF Done:  E(UwB97XD) =  -79.6875506111     A.U. after   12 cycles
 SCF Done:  E(UwB97XD) =  -79.6880423273     A.U. after   12 cycles
 SCF Done:  E(UwB97XD) =  -79.6863888340     A.U. after   12 cycles
 SCF Done:  E(UwB97XD) =  -79.6882229107     A.U. after   12 cycles
 SCF Done:  E(UwB97XD) =  -79.6882626556     A.U. after   11 cycles
 SCF Done:  E(UwB97XD) =  -79.6882639315     A.U. after   11 cycles
 SCF Done:  E(UwB97XD) =  -79.6882645543     A.U. after   11 cycles
 SCF Done:  E(UwB97XD) =  -79.6882649441     A.U. after   11 cycles
 SCF Done:  E(UwB97XD) =  -79.6882655222     A.U. after   11 cycles
 SCF Done:  E(UwB97XD) =  -79.6882660946     A.U. after   11 cycles
 Optimization completed.
    -- Stationary point found.
 Normal termination of Gaussian 09 at Sat May 27 08:55:15 2023.

 ----------------------------------------------------------------------
 #N Geom=AllCheck Guess=TCheck SCRF=Check Test GenChk UwB97XD/Aug-CC-pV
 TZ Freq
 ----------------------------------------------------------------------

 Structure from the checkpoint file:  "tmp.chk"
 ------
 geom 0
 ------
 Charge =  0 Multiplicity = 1

                          Input orientation:
 ---------------------------------------------------------------------
 Center     Atomic      Atomic             Coordinates (Angstroms)
 Number     Number       Type             X           Y           Z
 ---------------------------------------------------------------------
      1          6           0        0.000000    0.000000    0.000000
      2          1           0        0.000000    0.000000    1.078232
      3          1           0        0.938303    0.000000   -0.531219
      4          1           0       -0.910564    0.227550   -0.530781
      5          6           0       -0.368444   -2.969837   -0.210512
      6          1           0       -1.295571   -2.971436    0.339974
      7          1           0        0.553181   -3.197212    0.300860
      8          1           0       -0.390972   -2.967427   -1.288518
 ---------------------------------------------------------------------

 SCF Done:  E(UwB97XD) =  -79.6882660946     A.U. after    1 cycles

 Alpha  occ. eigenvalues --  -10.29616 -10.28607  -0.78264  -0.74026  -0.50577
 Alpha  occ. eigenvalues --   -0.50573  -0.49209  -0.49208  -0.30998
 Alpha virt. eigenvalues --    0.01087   0.03329   0.04674   0.04674   0.05549
 Alpha virt. eigenvalues --    0.06877   0.06878   0.10951   0.12327   0.12331
 Alpha virt. eigenvalues --    0.13172   0.14089   0.14090   0.15256   0.16033

  Beta  occ. eigenvalues --  -10.29616 -10.28607  -0.78263  -0.74027  -0.50576
  Beta  occ. eigenvalues --   -0.50575  -0.49211  -0.49206  -0.30996
  Beta virt. eigenvalues --    0.01086   0.03329   0.04674   0.04674   0.05548
  Beta virt. eigenvalues --    0.06877   0.06878   0.10951   0.12326   0.12330
  Beta virt. eigenvalues --    0.13172   0.14089   0.14090   0.15256   0.16033

 Mulliken charges and spin densities:
               1          2
     1  C   -1.078786   0.933397
     2  H    0.359620  -0.009951
     3  H    0.359603  -0.009970
     4  H    0.359543  -0.010066
     5  C   -1.078857  -0.933419
     6  H    0.359601   0.010043
     7  H    0.359639   0.010024
     8  H    0.359638   0.009941
 Sum of Mulliken charges =  -0.00000   0.00000

 Dipole moment (field-independent basis, Debye):
    X=             -0.0001    Y=              0.0005    Z=              0.0001  Tot=              0.0005
 Quadrupole moment (field-independent basis, Debye-Ang):
   XX=            -14.5194   YY=            -16.9561   ZZ=            -14.4944
   XY=             -0.3045   XZ=             -0.0223   YZ=             -0.1773

  Exact polarizability:  31.040   3.193  56.384   0.224   1.825  30.764
 Approx polarizability:  29.924   1.627  42.821   0.115   0.927  29.787

 ******    1 imaginary frequencies (negative Signs) ******

                      1                      2                      3
                      A                      A                      A
 Frequencies --   -239.6866                38.7827               268.6321
 Red. masses --      7.0479                 1.0078                 1.0095
 Frc consts  --      0.2386                 0.0009                 0.0429
 IR Inten    --  0.1341E-04             0.4262E-03              1.706

                      4                      5                      6
                      A                      A                      A
 Frequencies --    283.0544               347.1756               357.5445
 Red. masses --      1.0095                 1.0626                 1.0626
 Frc consts  --      0.0477                 0.0755                 0.0800
 IR Inten    --   1.701                 0.8159E-03             0.7384E-04

                      7                      8                      9
                      A                      A                      A
 Frequencies --    582.7560               630.8695              1410.6335
 Red. masses --      1.0700                 1.2343                 1.1006
 Frc consts  --      0.2141                 0.2894                 1.2904
 IR Inten    --  0.5531E-02              82.01                  5.158

                     10                     11                     12
                      A                      A                      A
 Frequencies --   1411.0486              1414.4410              1414.8474
 Red. masses --      1.1006                 1.0997                 1.0996
 Frc consts  --      1.2911                 1.2962                 1.2969
 IR Inten    --   5.149                 0.1499E-01             0.1346E-01

                     13                     14                     15
                      A                      A                      A
 Frequencies --   3125.4850              3125.8640              3303.6900
 Red. masses --      1.0086                 1.0087                 1.1185
 Frc consts  --      5.8053                 5.8071                 7.1924
 IR Inten    --  0.3253                 0.9573E-03             0.1804E-01

                     16                     17                     18
                      A                      A                      A
 Frequencies --   3303.9763              3304.1661              3304.4542
 Red. masses --      1.1185                 1.1179                 1.1179
 Frc consts  --      7.1937                 7.1907                 7.1920
 IR Inten    --  0.6063E-01              6.782                  6.660

 - Thermochemistry -
 -------------------
 Temperature   298.150 Kelvin.  Pressure   1.00000 Atm.
 Atom     1 has atomic number  6 and mass  12.00000

 Molecular mass:    30.04695 amu.
 Principal axes and moments of inertia in atomic units:
                           1         2         3
     Eigenvalues --    24.97915 258.99123 258.99307
           X            0.12284  -0.64372   0.75534
           Y            0.98994   0.02568  -0.13910
           Z            0.07015   0.76483   0.64040
 This molecule is an asymmetric top.
 Rotational symmetry number  1.
 Rotational temperatures (Kelvin)      3.46744     0.33443     0.33443
 Rotational constants (GHZ):          72.24992     6.96835     6.96830
    1 imaginary frequencies ignored.
 Zero-point vibrational energy     165248.7 (Joules/Mol)
                                   39.49538 (Kcal/Mol)
 Warning -- explicit consideration of   6 degrees of freedom as
           vibrations may cause significant error
 Vibrational temperatures:     55.80   386.50   407.25   499.51   514.43
          (Kelvin)            838.45   907.68  2029.58  2030.18  2035.06
                             2035.65  4496.87  4497.42  4753.27  4753.68
                             4753.95  4754.37

 Zero-point correction=                           0.062940 (Hartree/Particle)
 Thermal correction to Energy=                    0.068593
 Thermal correction to Enthalpy=                  0.069537
 Thermal correction to Gibbs Free Energy=         0.036336
 Sum of electronic and zero-point Energies=            -79.625326
 Sum of electronic and thermal Energies=               -79.619673
 Sum of electronic and thermal Enthalpies=             -79.618729
 Sum of electronic and thermal Free Energies=          -79.651930

                     E (Thermal)             CV                S
                      KCal/Mol        Cal/Mol-Kelvin    Cal/Mol-Kelvin
 Total                   43.043             16.961             69.877
 Electronic               0.000              0.000              0.000
 Translational            0.889              2.981             36.134
 Rotational               0.889              2.981             22.043
 Vibrational             41.265             11.000             11.700
 Vibration     1          0.594              1.981              5.320
 Vibration     2          0.673              1.731              1.605
 Vibration     3          0.682              1.705              1.515
 Vibration     4          0.725              1.581              1.179
 Vibration     5          0.733              1.560              1.133
 Vibration     6          0.940              1.069              0.480

 Normal termination of Gaussian 09 at Sat May 27 08:57:00 2023.
