 Gaussian 09, Revision D.01,
 Gaussian 09:  EM64L-G09RevD.01 24-Apr-2013

 ----------------------------------------------------------------------
 # uwb97xd/aug-cc-pvtz opt=(noeig,intern,maxcyc=50) # int=ultrafine nos
 ym iop(7/33=1) guess=(mix,always)
 ----------------------------------------------------------------------

 ------
 geom 0
 ------
 Symbolic Z-matrix:
 Charge =  0 Multiplicity = 1

 SCF Done:  E(UwB97XD) =  -79.6925376789     A.U. after   13 cycles
 SCF Done:  E(UwB97XD) =  -79.6949935965     A.U. after   13 cycles
 SCF Done:  E(UwB97XD) =  -79.6975517201     A.U. after   13 cycles
 SCF Done:  E(UwB97XD) =  -79.6978386060     A.U. after   13 cycles
 SCF Done:  E(UwB97XD) =  -79.6978643780     A.U. after   12 cycles
 SCF Done:  E(UwB97XD) =  -79.6978895278     A.U. after   13 cycles
 SCF Done:  E(UwB97XD) =  -79.6978950564     A.U. after   13 cycles
 Optimization completed.
    -- Stationary point found.

                         Z-Matrix orientation:
 ---------------------------------------------------------------------
 Center     Atomic      Atomic             Coordinates (Angstroms)
 Number     Number       Type             X           Y           Z
 ---------------------------------------------------------------------
      1          6           0        0.000000    0.000000    0.000000
      2          1           0        0.000000    0.000000    1.078200
      3          1           0        0.934011    0.000000   -0.538645
      4          1           0       -0.933548   -0.003135   -0.539437
      5          6           0        0.003126   -2.599997    0.002773
      6          1           0       -0.922879   -2.602475    0.555063
      7          1           0        0.944171   -2.599090    0.529033
      8          1           0       -0.011772   -2.601560   -1.075322
 ---------------------------------------------------------------------

 Alpha  occ. eigenvalues --  -10.29749 -10.28918  -0.78546  -0.73919  -0.51084
 Alpha  occ. eigenvalues --   -0.51078  -0.48900  -0.48896  -0.30548
 Alpha virt. eigenvalues --    0.01739   0.03291   0.04629   0.04629   0.05876
 Alpha virt. eigenvalues --    0.07012   0.07013   0.10751   0.11904   0.11906
 Alpha virt. eigenvalues --    0.13073   0.14184   0.14184   0.15058   0.16553

  Beta  occ. eigenvalues --  -10.29746 -10.28920  -0.78544  -0.73920  -0.51083
  Beta  occ. eigenvalues --   -0.51077  -0.48901  -0.48896  -0.30546
  Beta virt. eigenvalues --    0.01739   0.03292   0.04629   0.04629   0.05875
  Beta virt. eigenvalues --    0.07013   0.07013   0.10749   0.11903   0.11904
  Beta virt. eigenvalues --    0.13074   0.14184   0.14184   0.15056   0.16551

 Mulliken charges and spin densities:
               1          2
     1  C   -1.097589  -0.797666
     2  H    0.365878   0.016880
     3  H    0.365908   0.016927
     4  H    0.365903   0.016952
     5  C   -1.098579   0.797493
     6  H    0.366109  -0.016918
     7  H    0.366210  -0.016823
     8  H    0.366160  -0.016845
 Sum of Mulliken charges =  -0.00000   0.00000

 Dipole moment (field-independent basis, Debye):
    X=              0.0001    Y=             -0.0041    Z=              0.0001  Tot=              0.0041
 Quadrupole moment (field-independent basis, Debye-Ang):
   XX=            -14.4173   YY=            -18.2024   ZZ=            -14.4160
   XY=              0.0070   XZ=              0.0006   YZ=              0.0022

 Normal termination of Gaussian 09 at Sat May 27 09:28:03 2023.
