 Gaussian 09, Revision D.01,
 Gaussian 09:  EM64L-G09RevD.01 24-Apr-2013

 ----------------------------------------------------------------------
 # uwb97xd/aug-cc-pvtz opt=(noeig,intern,maxcyc=50) # int=ultrafine nos
 ym freq iop(7/33=1) guess=(mix,always)
 ----------------------------------------------------------------------

 ------
 geom 0
 ------
 Symbolic Z-matrix:
 Charge =  0 Multiplicity = 1

 SCF Done:  E(UwB97XD) =  -79.6983548322     A.U. after   12 cycles
 SCF Done:  E(UwB97XD) =  -79.7020162435     A.U. after   12 cycles
 SCF Done:  E(UwB97XD) =  -79.7035713202     A.U. after   13 cycles
 SCF Done:  E(UwB97XD) =  -79.7036475378     A.U. after   13 cycles
 SCF Done:  E(UwB97XD) =  -79.7036567818     A.U. after   13 cycles
 Optimization completed.
    -- Stationary point found.
 Normal termination of Gaussian 09 at Sat May 27 08:44:06 2023.

 ----------------------------------------------------------------------
 #N Geom=AllCheck Guess=TCheck SCRF=Check Test GenChk UwB97XD/Aug-CC-pV
 TZ Freq
 ----------------------------------------------------------------------

 Structure from the checkpoint file:  "tmp.chk"
 ------
 geom 0
 ------
 Charge =  0 Multiplicity = 1

                          Input orientation:
 ---------------------------------------------------------------------
 Center     Atomic      Atomic             Coordinates (Angstroms)
 Number     Number       Type             X           Y           Z
 ---------------------------------------------------------------------
      1          6           0        0.000000    0.000000    0.000000
      2          1           0        0.000000    0.000000    1.079276
      3          1           0        0.956725    0.000000   -0.499397
      4          1           0       -0.824134    0.485735   -0.499552
      5          6           0       -0.674556   -2.477744   -0.407137
      6          1           0       -1.631255   -2.476537    0.092441
      7          1           0        0.149732   -2.961885    0.093717
      8          1           0       -0.674488   -2.480463   -1.486336
 ---------------------------------------------------------------------

 SCF Done:  E(UwB97XD) =  -79.7036567818     A.U. after    1 cycles

 Alpha  occ. eigenvalues --  -10.30077 -10.29338  -0.78131  -0.74442  -0.50343
 Alpha  occ. eigenvalues --   -0.50340  -0.48651  -0.48648  -0.31099
 Alpha virt. eigenvalues --    0.01749   0.03352   0.04679   0.04679   0.05705
 Alpha virt. eigenvalues --    0.06890   0.06891   0.10705   0.12402   0.12405
 Alpha virt. eigenvalues --    0.13236   0.14201   0.14202   0.14604   0.16227

  Beta  occ. eigenvalues --  -10.30076 -10.29339  -0.78130  -0.74442  -0.50342
  Beta  occ. eigenvalues --   -0.50340  -0.48652  -0.48648  -0.31099
  Beta virt. eigenvalues --    0.01749   0.03352   0.04679   0.04679   0.05705
  Beta virt. eigenvalues --    0.06890   0.06891   0.10705   0.12402   0.12405
  Beta virt. eigenvalues --    0.13236   0.14201   0.14202   0.14605   0.16227

 Mulliken charges and spin densities:
               1          2
     1  C   -1.028350  -0.668103
     2  H    0.342868   0.004129
     3  H    0.342923   0.004018
     4  H    0.342536   0.004199
     5  C   -1.028385   0.668115
     6  H    0.343032  -0.004060
     7  H    0.342686  -0.004222
     8  H    0.342690  -0.004076
 Sum of Mulliken charges =  -0.00000   0.00000

 Dipole moment (field-independent basis, Debye):
    X=              0.0001    Y=             -0.0002    Z=              0.0010  Tot=              0.0010
 Quadrupole moment (field-independent basis, Debye-Ang):
   XX=            -14.6802   YY=            -15.7515   ZZ=            -14.6244
   XY=             -0.3163   XZ=             -0.0520   YZ=             -0.1906

  Exact polarizability:  32.656   9.531  65.035   1.560   5.737  30.998
 Approx polarizability:  31.849   7.319  56.745   1.203   4.420  30.584

 ******    1 imaginary frequencies (negative Signs) ******

                      1                      2                      3
                      A                      A                      A
 Frequencies --   -523.0739                59.1905               450.4636
 Red. masses --      9.0715                 1.0078                 1.0162
 Frc consts  --      1.4624                 0.0021                 0.1215
 IR Inten    --  0.7562E-05             0.8497E-03              7.330

                      4                      5                      6
                      A                      A                      A
 Frequencies --    453.8642               613.8513               615.5892
 Red. masses --      1.0162                 1.1084                 1.1083
 Frc consts  --      0.1233                 0.2461                 0.2475
 IR Inten    --   7.375                 0.1343E-04             0.5488E-04

                      7                      8                      9
                      A                      A                      A
 Frequencies --    817.7812               869.1529              1423.6103
 Red. masses --      1.0315                 1.2294                 1.0948
 Frc consts  --      0.4064                 0.5472                 1.3073
 IR Inten    --  0.2218E-03             0.1727                  5.177

                     10                     11                     12
                      A                      A                      A
 Frequencies --   1424.3058              1428.7073              1429.4013
 Red. masses --      1.0948                 1.0911                 1.0910
 Frc consts  --      1.3086                 1.3122                 1.3134
 IR Inten    --   5.170                 0.1387E-02             0.5832E-03

                     13                     14                     15
                      A                      A                      A
 Frequencies --   3121.9705              3122.3393              3288.5253
 Red. masses --      1.0120                 1.0120                 1.1161
 Frc consts  --      5.8114                 5.8132                 7.1113
 IR Inten    --   9.864                 0.8774E-02              6.455

                     16                     17                     18
                      A                      A                      A
 Frequencies --   3288.5454              3288.9024              3288.9860
 Red. masses --      1.1164                 1.1165                 1.1166
 Frc consts  --      7.1134                 7.1158                 7.1165
 IR Inten    --   4.648                  3.927                  3.578

 - Thermochemistry -
 -------------------
 Temperature   298.150 Kelvin.  Pressure   1.00000 Atm.
 Atom     1 has atomic number  6 and mass  12.00000

 Molecular mass:    30.04695 amu.
 Principal axes and moments of inertia in atomic units:
                           1         2         3
     Eigenvalues --    24.52826 203.76163 203.76311
           X            0.25944  -0.02931   0.96531
           Y            0.95298  -0.15431  -0.26081
           Z            0.15660   0.98759  -0.01210
 This molecule is an asymmetric top.
 Rotational symmetry number  1.
 Rotational temperatures (Kelvin)      3.53118     0.42507     0.42507
 Rotational constants (GHZ):          73.57803     8.85712     8.85706
    1 imaginary frequencies ignored.
 Zero-point vibrational energy     173369.9 (Joules/Mol)
                                   41.43640 (Kcal/Mol)
 Warning -- explicit consideration of   5 degrees of freedom as
           vibrations may cause significant error
 Vibrational temperatures:     85.16   648.12   653.01   883.19   885.69
          (Kelvin)           1176.60  1250.52  2048.26  2049.26  2055.59
                             2056.59  4491.81  4492.34  4731.45  4731.48
                             4731.99  4732.11

 Zero-point correction=                           0.066033 (Hartree/Particle)
 Thermal correction to Energy=                    0.070670
 Thermal correction to Enthalpy=                  0.071614
 Thermal correction to Gibbs Free Energy=         0.040726
 Sum of electronic and zero-point Energies=            -79.637624
 Sum of electronic and thermal Energies=               -79.632987
 Sum of electronic and thermal Enthalpies=             -79.632042
 Sum of electronic and thermal Free Energies=          -79.662931

                     E (Thermal)             CV                S
                      KCal/Mol        Cal/Mol-Kelvin    Cal/Mol-Kelvin
 Total                   44.346             14.202             65.010
 Electronic               0.000              0.000              0.000
 Translational            0.889              2.981             36.134
 Rotational               0.889              2.981             21.548
 Vibrational             42.569              8.240              7.328
 Vibration     1          0.597              1.974              4.484
 Vibration     2          0.809              1.360              0.794
 Vibration     3          0.812              1.352              0.784
 Vibration     4          0.973              1.003              0.426
 Vibration     5          0.975              0.999              0.424

 Normal termination of Gaussian 09 at Sat May 27 08:45:55 2023.
