 Gaussian 09, Revision D.01,
 Gaussian 09:  EM64L-G09RevD.01 24-Apr-2013

 ----------------------------------------------------------------------
 # uwb97xd/aug-cc-pvtz opt=(noeig,intern,maxcyc=50) # int=ultrafine nos
 ym iop(7/33=1) guess=(mix,always)
 ----------------------------------------------------------------------

 ------
 geom 0
 ------
 Symbolic Z-matrix:
 Charge =  0 Multiplicity = 3

 SCF Done:  E(UwB97XD) =  -79.6783494990     A.U. after   12 cycles

 Alpha  occ. eigenvalues --  -10.29542 -10.29541  -0.78656  -0.78656  -0.50901
 Alpha  occ. eigenvalues --   -0.50901  -0.50893  -0.50893  -0.31485  -0.31484
 Alpha virt. eigenvalues --    0.02708   0.03355   0.04718   0.04720   0.05139
 Alpha virt. eigenvalues --    0.05142   0.08457   0.09832   0.13038   0.13039
 Alpha virt. eigenvalues --    0.13100   0.13108   0.13111   0.13695   0.20022

  Beta  occ. eigenvalues --  -10.28420 -10.28420  -0.74156  -0.74155  -0.49677
  Beta  occ. eigenvalues --   -0.49676  -0.49668  -0.49667
  Beta virt. eigenvalues --   -0.00027  -0.00006   0.04218   0.04697   0.05516
  Beta virt. eigenvalues --    0.05518   0.05873   0.05876   0.13451   0.13995
  Beta virt. eigenvalues --    0.13997   0.14035   0.14038   0.14256   0.14397

 Mulliken charges and spin densities:
               1          2
     1  C   -1.048066   1.025103
     2  H    0.349358  -0.008322
     3  H    0.349352  -0.008369
     4  H    0.349357  -0.008412
     5  C   -1.048055   1.025108
     6  H    0.349314  -0.008416
     7  H    0.349384  -0.008338
     8  H    0.349357  -0.008354
 Sum of Mulliken charges =  -0.00000   2.00000

 Dipole moment (field-independent basis, Debye):
    X=              0.0001    Y=             -0.0045    Z=              0.0001  Tot=              0.0045
 Quadrupole moment (field-independent basis, Debye-Ang):
   XX=            -14.3807   YY=            -18.1541   ZZ=            -14.3794
   XY=              0.0249   XZ=              0.0004   YZ=              0.0254

 Optimization completed.
    -- Stationary point found.

                         Z-Matrix orientation:
 ---------------------------------------------------------------------
 Center     Atomic      Atomic             Coordinates (Angstroms)
 Number     Number       Type             X           Y           Z
 ---------------------------------------------------------------------
      1          6           0        0.000000    0.000000    0.000000
      2          1           0        0.000000    0.000000    1.078200
      3          1           0        0.934011    0.000000   -0.538645
      4          1           0       -0.933548   -0.003135   -0.539437
      5          6           0        0.076759   -9.999701    0.009250
      6          1           0       -0.852337  -10.004562    0.556308
      7          1           0        1.014707   -9.982861    0.540744
      8          1           0        0.068077  -10.014808   -1.068809
 ---------------------------------------------------------------------

 Normal termination of Gaussian 09 at Sat May 27 09:32:38 2023.
