 Gaussian 09, Revision D.01,
 Gaussian 09:  EM64L-G09RevD.01 24-Apr-2013

 ----------------------------------------------------------------------
 # uwb97xd/aug-cc-pvtz opt=(noeig,intern,maxcyc=50) # int=ultrafine nos
 ym freq iop(7/33=1) guess=(mix,always)
 ----------------------------------------------------------------------

 ------
 geom 0
 ------
 Symbolic Z-matrix:
 Charge =  0 Multiplicity = 3

 SCF Done:  E(UwB97XD) =  -79.6653891145     A.U. after   13 cycles
 SCF Done:  E(UwB97XD) =  -79.6715110280     A.U. after   13 cycles
 SCF Done:  E(UwB97XD) =  -79.6749071432     A.U. after   13 cycles
 SCF Done:  E(UwB97XD) =  -79.6768005263     A.U. after   13 cycles
 SCF Done:  E(UwB97XD) =  -79.6775601279     A.U. after   13 cycles
 SCF Done:  E(UwB97XD) =  -79.6782690754     A.U. after   13 cycles
 SCF Done:  E(UwB97XD) =  -79.6783427160     A.U. after   13 cycles
 SCF Done:  E(UwB97XD) =  -79.6783483630     A.U. after   13 cycles
 SCF Done:  E(UwB97XD) =  -79.6783496018     A.U. after   13 cycles
 Optimization completed.
    -- Stationary point found.
 Normal termination of Gaussian 09 at Sat May 27 09:14:18 2023.

 ----------------------------------------------------------------------
 #N Geom=AllCheck Guess=TCheck SCRF=Check Test GenChk UwB97XD/Aug-CC-pV
 TZ Freq
 ----------------------------------------------------------------------

 Structure from the checkpoint file:  "tmp.chk"
 ------
 geom 0
 ------
 Charge =  0 Multiplicity = 3

                          Input orientation:
 ---------------------------------------------------------------------
 Center     Atomic      Atomic             Coordinates (Angstroms)
 Number     Number       Type             X           Y           Z
 ---------------------------------------------------------------------
      1          6           0        0.000000    0.000000    0.000000
      2          1           0        0.000000    0.000000    1.078228
      3          1           0        0.934036    0.000000   -0.538793
      4          1           0       -0.933567   -0.000376   -0.539532
      5          6           0        0.076761   -9.999701    0.009242
      6          1           0       -0.852368  -10.004562    0.556320
      7          1           0        1.014700   -9.982859    0.540946
      8          1           0        0.068156  -10.010704   -1.068914
 ---------------------------------------------------------------------

 SCF Done:  E(UwB97XD) =  -79.6783496018     A.U. after    1 cycles

 Alpha  occ. eigenvalues --  -10.29544 -10.29543  -0.78654  -0.78654  -0.50902
 Alpha  occ. eigenvalues --   -0.50900  -0.50892  -0.50890  -0.31485  -0.31484
 Alpha virt. eigenvalues --    0.02708   0.03355   0.04718   0.04720   0.05139
 Alpha virt. eigenvalues --    0.05142   0.08457   0.09832   0.13038   0.13039
 Alpha virt. eigenvalues --    0.13100   0.13108   0.13111   0.13694   0.20020

  Beta  occ. eigenvalues --  -10.28422 -10.28422  -0.74154  -0.74154  -0.49677
  Beta  occ. eigenvalues --   -0.49675  -0.49666  -0.49664
  Beta virt. eigenvalues --   -0.00027  -0.00006   0.04217   0.04697   0.05516
  Beta virt. eigenvalues --    0.05517   0.05873   0.05876   0.13452   0.13996
  Beta virt. eigenvalues --    0.13996   0.14035   0.14038   0.14255   0.14396

 Mulliken charges and spin densities:
               1          2
     1  C   -1.048052   1.025127
     2  H    0.349362  -0.008323
     3  H    0.349341  -0.008390
     4  H    0.349349  -0.008414
     5  C   -1.048044   1.025131
     6  H    0.349311  -0.008410
     7  H    0.349371  -0.008358
     8  H    0.349362  -0.008362
 Sum of Mulliken charges =  -0.00000   2.00000

 Dipole moment (field-independent basis, Debye):
    X=              0.0001    Y=              0.0004    Z=              0.0001  Tot=              0.0004
 Quadrupole moment (field-independent basis, Debye-Ang):
   XX=            -14.3814   YY=            -18.2131   ZZ=            -14.3788
   XY=              0.0228   XZ=              0.0003   YZ=              0.0190

  Exact polarizability:  32.038  -0.006  32.946   0.001  -0.004  32.027
 Approx polarizability:  29.275   0.011  27.496   0.001   0.009  29.276

 ******    1 imaginary frequencies (negative Signs) ******

                      1                      2                      3
                      A                      A                      A
 Frequencies --    -13.0404                 0.3416                40.2979
 Red. masses --      1.0078                 3.7549                 1.0099
 Frc consts  --      0.0001                 0.0000                 0.0010
 IR Inten    --  0.7296E-03             0.6898E-09             0.2242E-03

                      4                      5                      6
                      A                      A                      A
 Frequencies --     44.5358                83.2748                86.4092
 Red. masses --      1.0092                 1.0099                 1.0092
 Frc consts  --      0.0012                 0.0041                 0.0044
 IR Inten    --  0.1855E-03             0.2492E-02             0.2598E-02

                      7                      8                      9
                      A                      A                      A
 Frequencies --    527.0758               528.2163              1409.6377
 Red. masses --      1.2356                 1.2357                 1.1019
 Frc consts  --      0.2022                 0.2031                 1.2901
 IR Inten    --   160.4                 0.5966                  3.524

                     10                     11                     12
                      A                      A                      A
 Frequencies --   1409.6813              1410.0315              1410.0989
 Red. masses --      1.1019                 1.1019                 1.1019
 Frc consts  --      1.2901                 1.2907                 1.2908
 IR Inten    --   2.456                  3.246                  2.585

                     13                     14                     15
                      A                      A                      A
 Frequencies --   3122.1868              3122.1979              3303.1994
 Red. masses --      1.0078                 1.0078                 1.1185
 Frc consts  --      5.7883                 5.7884                 7.1906
 IR Inten    --  0.3556E-03             0.9290E-04              4.354

                     16                     17                     18
                      A                      A                      A
 Frequencies --   3303.2383              3303.5974              3303.6456
 Red. masses --      1.1185                 1.1186                 1.1186
 Frc consts  --      7.1907                 7.1926                 7.1928
 IR Inten    --   4.373                  4.463                  4.472

 - Thermochemistry -
 -------------------
 Temperature   298.150 Kelvin.  Pressure   1.00000 Atm.
 Atom     1 has atomic number  6 and mass  12.00000

 Molecular mass:    30.04695 amu.
 Principal axes and moments of inertia in atomic units:
                           1         2         3
     Eigenvalues --    25.105222694.992592694.99745
           X           -0.00768   0.18874   0.98200
           Y            0.99997   0.00234   0.00737
           Z           -0.00091   0.98202  -0.18875
 This molecule is an asymmetric top.
 Rotational symmetry number  1.
 Rotational temperatures (Kelvin)      3.45003     0.03214     0.03214
 Rotational constants (GHZ):          71.88710     0.66966     0.66966
    1 imaginary frequencies ignored.
 Zero-point vibrational energy     157952.9 (Joules/Mol)
                                   37.75165 (Kcal/Mol)
 Warning -- explicit consideration of   7 degrees of freedom as
           vibrations may cause significant error
 Vibrational temperatures:      0.49    57.98    64.08   119.81   124.32
          (Kelvin)            758.34   759.98  2028.15  2028.21  2028.72
                             2028.82  4492.12  4492.14  4752.56  4752.62
                             4753.13  4753.20

 Zero-point correction=                           0.060161 (Hartree/Particle)
 Thermal correction to Energy=                    0.067604
 Thermal correction to Enthalpy=                  0.068549
 Thermal correction to Gibbs Free Energy=         0.021588
 Sum of electronic and zero-point Energies=            -79.618189
 Sum of electronic and thermal Energies=               -79.610745
 Sum of electronic and thermal Enthalpies=             -79.609801
 Sum of electronic and thermal Free Energies=          -79.656762

                     E (Thermal)             CV                S
                      KCal/Mol        Cal/Mol-Kelvin    Cal/Mol-Kelvin
 Total                   42.422             18.616             98.838
 Electronic               0.000              0.000              2.183
 Translational            0.889              2.981             36.134
 Rotational               0.889              2.981             26.703
 Vibrational             40.645             12.654             33.818
 Vibration     1          0.592              1.987             14.721
 Vibration     2          0.594              1.981              5.244
 Vibration     3          0.595              1.980              5.046
 Vibration     4          0.600              1.961              3.812
 Vibration     5          0.601              1.959              3.740
 Vibration     6          0.882              1.190              0.594
 Vibration     7          0.883              1.188              0.591

 Normal termination of Gaussian 09 at Sat May 27 09:15:04 2023.
