 Gaussian 09, Revision D.01,
 Gaussian 09:  EM64L-G09RevD.01 24-Apr-2013

 ----------------------------------------------------------------------
 # uwb97xd/aug-cc-pvtz opt=(noeig,intern,maxcyc=50) # int=ultrafine nos
 ym iop(7/33=1) guess=(mix,always)
 ----------------------------------------------------------------------

 ------
 geom 0
 ------
 Symbolic Z-matrix:
 Charge =  0 Multiplicity = 1

 SCF Done:  E(UwB97XD) =  -40.3417761212     A.U. after   10 cycles

 Alpha  occ. eigenvalues --  -10.29532  -0.78662  -0.50906  -0.50898  -0.31495
 Alpha virt. eigenvalues --    0.03583   0.05285   0.05291   0.10771   0.13348
 Alpha virt. eigenvalues --    0.13353   0.13464   0.13645   0.20133   0.20135
 Alpha virt. eigenvalues --    0.22905   0.25620   0.25624   0.32523   0.32929

  Beta  occ. eigenvalues --  -10.28408  -0.74155  -0.49678  -0.49670  -0.40338
  Beta virt. eigenvalues --   -0.00161   0.04117   0.05333   0.05335   0.06450
  Beta virt. eigenvalues --    0.13444   0.13516   0.13520   0.15080   0.19440
  Beta virt. eigenvalues --    0.19443   0.20390   0.20403   0.20920   0.27469

 Mulliken charges and spin densities:
               1          2
     1  C   -1.046364   1.037122
     2  H    0.348359  -0.011794
     3  H    0.348366  -0.011822
     4  H    0.348386  -0.011835
     5  H    0.001252  -1.001672
 Sum of Mulliken charges =  -0.00000   0.00000

 Dipole moment (field-independent basis, Debye):
    X=              0.0001    Y=             -0.0048    Z=              0.0000  Tot=              0.0048
 Quadrupole moment (field-independent basis, Debye-Ang):
   XX=             -8.6083   YY=            -10.5724   ZZ=             -8.6088
   XY=              0.0038   XZ=              0.0009   YZ=              0.0023

 Optimization completed.
    -- Stationary point found.

                         Z-Matrix orientation:
 ---------------------------------------------------------------------
 Center     Atomic      Atomic             Coordinates (Angstroms)
 Number     Number       Type             X           Y           Z
 ---------------------------------------------------------------------
      1          6           0        0.000000    0.000000    0.000000
      2          1           0        0.000000    0.000000    1.078200
      3          1           0        0.934011    0.000000   -0.538645
      4          1           0       -0.933548   -0.003135   -0.539437
      5          1           0        0.023799   -3.999885    0.018752
 ---------------------------------------------------------------------

 Normal termination of Gaussian 09 at Sat Jun  3 09:00:23 2023.
