 Gaussian 09, Revision D.01,
 Gaussian 09:  EM64L-G09RevD.01 24-Apr-2013

 ----------------------------------------------------------------------
 # uwb97xd/aug-cc-pvtz opt=(noeig,intern,maxcyc=50) # int=ultrafine nos
 ym freq iop(7/33=1) guess=(mix,always)
 ----------------------------------------------------------------------

 ------
 geom 0
 ------
 Symbolic Z-matrix:
 Charge =  0 Multiplicity = 1

 SCF Done:  E(UwB97XD) =  -40.3398111471     A.U. after   11 cycles
 SCF Done:  E(UwB97XD) =  -40.3405677913     A.U. after   11 cycles
 SCF Done:  E(UwB97XD) =  -40.3414771442     A.U. after   11 cycles
 SCF Done:  E(UwB97XD) =  -40.3416685401     A.U. after   11 cycles
 SCF Done:  E(UwB97XD) =  -40.3417674944     A.U. after   10 cycles
 SCF Done:  E(UwB97XD) =  -40.3417755403     A.U. after   10 cycles
 SCF Done:  E(UwB97XD) =  -40.3417760368     A.U. after   10 cycles
 SCF Done:  E(UwB97XD) =  -40.3417761589     A.U. after   10 cycles
 Optimization completed.
    -- Stationary point found.
 Normal termination of Gaussian 09 at Sat Jun  3 08:55:46 2023.

 ----------------------------------------------------------------------
 #N Geom=AllCheck Guess=TCheck SCRF=Check Test GenChk UwB97XD/Aug-CC-pV
 TZ Freq
 ----------------------------------------------------------------------

 Structure from the checkpoint file:  "tmp.chk"
 ------
 geom 0
 ------
 Charge =  0 Multiplicity = 1

                          Input orientation:
 ---------------------------------------------------------------------
 Center     Atomic      Atomic             Coordinates (Angstroms)
 Number     Number       Type             X           Y           Z
 ---------------------------------------------------------------------
      1          6           0        0.000000    0.000000    0.000000
      2          1           0        0.000000    0.000000    1.078283
      3          1           0        0.933815    0.000000   -0.539174
      4          1           0       -0.933779   -0.003168   -0.539222
      5          1           0        0.023799   -3.999885    0.018753
 ---------------------------------------------------------------------

 SCF Done:  E(UwB97XD) =  -40.3417761589     A.U. after    1 cycles

 Alpha  occ. eigenvalues --  -10.29535  -0.78659  -0.50901  -0.50899  -0.31495
 Alpha virt. eigenvalues --    0.03583   0.05285   0.05290   0.10771   0.13349
 Alpha virt. eigenvalues --    0.13352   0.13464   0.13644   0.20133   0.20133
 Alpha virt. eigenvalues --    0.22903   0.25620   0.25622   0.32522   0.32930

  Beta  occ. eigenvalues --  -10.28411  -0.74153  -0.49674  -0.49671  -0.40338
  Beta virt. eigenvalues --   -0.00161   0.04117   0.05332   0.05335   0.06450
  Beta virt. eigenvalues --    0.13443   0.13515   0.13520   0.15079   0.19440
  Beta virt. eigenvalues --    0.19442   0.20389   0.20402   0.20919   0.27470

 Mulliken charges and spin densities:
               1          2
     1  C   -1.046343   1.037153
     2  H    0.348356  -0.011812
     3  H    0.348361  -0.011849
     4  H    0.348374  -0.011820
     5  H    0.001252  -1.001672
 Sum of Mulliken charges =  -0.00000   0.00000

 Dipole moment (field-independent basis, Debye):
    X=             -0.0000    Y=             -0.0048    Z=             -0.0000  Tot=              0.0048
 Quadrupole moment (field-independent basis, Debye-Ang):
   XX=             -8.6088   YY=            -10.5728   ZZ=             -8.6084
   XY=              0.0038   XZ=              0.0000   YZ=              0.0023

  Exact polarizability:  20.875  -0.008  22.316   0.000  -0.006  20.869
 Approx polarizability:  17.889   0.001  16.963   0.000   0.001  17.889

 ******    1 imaginary frequencies (negative Signs) ******

                      1                      2                      3
                      A                      A                      A
 Frequencies --    -96.6700                53.8037                90.0736
 Red. masses --      1.0601                 1.0126                 1.0126
 Frc consts  --      0.0058                 0.0017                 0.0048
 IR Inten    --  0.1084E-02             0.6395E-02             0.1242E-01

                      4                      5                      6
                      A                      A                      A
 Frequencies --    525.8459              1409.6154              1409.7074
 Red. masses --      1.2306                 1.1019                 1.1019
 Frc consts  --      0.2005                 1.2900                 1.2902
 IR Inten    --   81.19                  2.891                  2.883

                      7                      8                      9
                      A                      A                      A
 Frequencies --   3121.9864              3303.0100              3303.2428
 Red. masses --      1.0078                 1.1185                 1.1185
 Frc consts  --      5.7876                 7.1899                 7.1908
 IR Inten    --  0.1932E-01              4.299                  4.265

 - Thermochemistry -
 -------------------
 Temperature   298.150 Kelvin.  Pressure   1.00000 Atm.
 Atom     1 has atomic number  6 and mass  12.00000

 Molecular mass:    16.03130 amu.
 Principal axes and moments of inertia in atomic units:
                           1         2         3
     Eigenvalues --    12.55356  60.23495  60.23572
           X           -0.00651  -0.01216   0.99990
           Y            0.99997   0.00510   0.00657
           Z           -0.00518   0.99991   0.01212
 This molecule is an asymmetric top.
 Rotational symmetry number  1.
 Rotational temperatures (Kelvin)      6.89954     1.43793     1.43791
 Rotational constants (GHZ):         143.76330    29.96170    29.96131
    1 imaginary frequencies ignored.
 Zero-point vibrational energy      79056.9 (Joules/Mol)
                                   18.89506 (Kcal/Mol)
 Warning -- explicit consideration of   3 degrees of freedom as
           vibrations may cause significant error
 Vibrational temperatures:     77.41   129.60   756.57  2028.12  2028.25
          (Kelvin)           4491.84  4752.29  4752.62

 Zero-point correction=                           0.030111 (Hartree/Particle)
 Thermal correction to Energy=                    0.034744
 Thermal correction to Enthalpy=                  0.035689
 Thermal correction to Gibbs Free Energy=         0.006381
 Sum of electronic and zero-point Energies=            -40.311665
 Sum of electronic and thermal Energies=               -40.307032
 Sum of electronic and thermal Enthalpies=             -40.306088
 Sum of electronic and thermal Free Energies=          -40.335396

                     E (Thermal)             CV                S
                      KCal/Mol        Cal/Mol-Kelvin    Cal/Mol-Kelvin
 Total                   21.802             11.292             61.684
 Electronic               0.000              0.000              0.000
 Translational            0.889              2.981             34.261
 Rotational               0.889              2.981             18.461
 Vibrational             20.025              5.330              8.962
 Vibration     1          0.596              1.976              4.672
 Vibration     2          0.602              1.956              3.658
 Vibration     3          0.881              1.193              0.597

 Normal termination of Gaussian 09 at Sat Jun  3 08:56:03 2023.
