 Gaussian 09, Revision D.01,
 Gaussian 09:  EM64L-G09RevD.01 24-Apr-2013

 ----------------------------------------------------------------------
 # uwb97xd/aug-cc-pvtz opt=(noeig,intern,maxcyc=50) # int=ultrafine nos
 ym iop(7/33=1) guess=(mix,always)
 ----------------------------------------------------------------------

 ------
 geom 0
 ------
 Symbolic Z-matrix:
 Charge =  0 Multiplicity = 1

 SCF Done:  E(UwB97XD) =  -40.3432384208     A.U. after   16 cycles

 Alpha  occ. eigenvalues --  -10.30031  -0.78919  -0.51170  -0.51165  -0.31776
 Alpha virt. eigenvalues --    0.00996   0.04181   0.05207   0.05241   0.11240
 Alpha virt. eigenvalues --    0.12497   0.12972   0.12974   0.14213   0.19856
 Alpha virt. eigenvalues --    0.19944   0.21671   0.21692   0.26810   0.31142

  Beta  occ. eigenvalues --  -10.28946  -0.74528  -0.49980  -0.49974  -0.39756
  Beta virt. eigenvalues --   -0.00006   0.04228   0.05257   0.05273   0.06353
  Beta virt. eigenvalues --    0.13261   0.13286   0.13522   0.14795   0.19807
  Beta virt. eigenvalues --    0.20063   0.20167   0.20351   0.24881   0.29899

 Mulliken charges and spin densities:
               1          2
     1  C   -1.092581   0.998624
     2  H    0.363509  -0.007627
     3  H    0.363550  -0.007604
     4  H    0.366209  -0.006198
     5  H   -0.000687  -0.977195
 Sum of Mulliken charges =  -0.00000  -0.00000

 Dipole moment (field-independent basis, Debye):
    X=              0.0048    Y=              0.1641    Z=              0.0027  Tot=              0.1642
 Quadrupole moment (field-independent basis, Debye-Ang):
   XX=             -8.6258   YY=            -10.7738   ZZ=             -8.6262
   XY=             -0.0040   XZ=              0.0008   YZ=             -0.0023

 Optimization completed.
    -- Stationary point found.

                         Z-Matrix orientation:
 ---------------------------------------------------------------------
 Center     Atomic      Atomic             Coordinates (Angstroms)
 Number     Number       Type             X           Y           Z
 ---------------------------------------------------------------------
      1          6           0        0.000000    0.000000    0.000000
      2          1           0        0.000000    0.000000    1.078200
      3          1           0        0.934011    0.000000   -0.538645
      4          1           0       -0.933548   -0.003135   -0.539437
      5          1           0       -0.104872   -2.997602   -0.058147
 ---------------------------------------------------------------------

 Normal termination of Gaussian 09 at Sat Jun  3 08:59:55 2023.
