 Gaussian 09, Revision D.01,
 Gaussian 09:  EM64L-G09RevD.01 24-Apr-2013

 ----------------------------------------------------------------------
 # uwb97xd/aug-cc-pvtz opt=(noeig,intern,maxcyc=50) # int=ultrafine nos
 ym freq iop(7/33=1) guess=(mix,always)
 ----------------------------------------------------------------------

 ------
 geom 0
 ------
 Symbolic Z-matrix:
 Charge =  0 Multiplicity = 1

 SCF Done:  E(UwB97XD) =  -40.3415409713     A.U. after   15 cycles
 SCF Done:  E(UwB97XD) =  -40.3422695001     A.U. after   15 cycles
 SCF Done:  E(UwB97XD) =  -40.3430845432     A.U. after   17 cycles
 SCF Done:  E(UwB97XD) =  -40.3432148072     A.U. after   16 cycles
 SCF Done:  E(UwB97XD) =  -40.3432727439     A.U. after   16 cycles
 SCF Done:  E(UwB97XD) =  -40.3432746851     A.U. after   16 cycles
 SCF Done:  E(UwB97XD) =  -40.3432748131     A.U. after   16 cycles
 Optimization completed.
    -- Stationary point found.
 Normal termination of Gaussian 09 at Sat Jun  3 08:53:01 2023.

 ----------------------------------------------------------------------
 #N Geom=AllCheck Guess=TCheck SCRF=Check Test GenChk UwB97XD/Aug-CC-pV
 TZ Freq
 ----------------------------------------------------------------------

 Structure from the checkpoint file:  "tmp.chk"
 ------
 geom 0
 ------
 Charge =  0 Multiplicity = 1

                          Input orientation:
 ---------------------------------------------------------------------
 Center     Atomic      Atomic             Coordinates (Angstroms)
 Number     Number       Type             X           Y           Z
 ---------------------------------------------------------------------
      1          6           0        0.000000    0.000000    0.000000
      2          1           0        0.000000    0.000000    1.078261
      3          1           0        0.934077    0.000000   -0.538756
      4          1           0       -0.931446    0.070935   -0.538629
      5          1           0       -0.104870   -2.997603   -0.058146
 ---------------------------------------------------------------------

 SCF Done:  E(UwB97XD) =  -40.3432748131     A.U. after    1 cycles

 Alpha  occ. eigenvalues --  -10.30045  -0.78922  -0.51170  -0.51158  -0.31794
 Alpha virt. eigenvalues --    0.01006   0.04166   0.05207   0.05209   0.11264
 Alpha virt. eigenvalues --    0.12504   0.12976   0.12978   0.14192   0.19909
 Alpha virt. eigenvalues --    0.19917   0.21672   0.21673   0.26744   0.31202

  Beta  occ. eigenvalues --  -10.28960  -0.74536  -0.49978  -0.49966  -0.39710
  Beta virt. eigenvalues --   -0.00021   0.04215   0.05273   0.05276   0.06355
  Beta virt. eigenvalues --    0.13239   0.13243   0.13518   0.14714   0.19924
  Beta virt. eigenvalues --    0.19949   0.20268   0.20286   0.24873   0.29976

 Mulliken charges and spin densities:
               1          2
     1  C   -1.089260   0.999265
     2  H    0.363358  -0.007489
     3  H    0.363338  -0.007509
     4  H    0.363077  -0.007584
     5  H   -0.000512  -0.976684
 Sum of Mulliken charges =  -0.00000   0.00000

 Dipole moment (field-independent basis, Debye):
    X=              0.0079    Y=              0.2175    Z=              0.0043  Tot=              0.2177
 Quadrupole moment (field-independent basis, Debye-Ang):
   XX=             -8.6324   YY=            -10.7687   ZZ=             -8.6279
   XY=             -0.0807   XZ=             -0.0019   YZ=             -0.0466

  Exact polarizability:  20.817   0.368  31.194   0.007   0.204  20.804
 Approx polarizability:  18.085   0.097  20.929   0.002   0.053  18.084

 ******    1 imaginary frequencies (negative Signs) ******

                      1                      2                      3
                      A                      A                      A
 Frequencies --   -428.0673               203.6786               212.6561
 Red. masses --      1.0819                 1.0180                 1.0180
 Frc consts  --      0.1168                 0.0249                 0.0271
 IR Inten    --   22.97                 0.5738E-01             0.6156E-01

                      4                      5                      6
                      A                      A                      A
 Frequencies --    558.9997              1409.9272              1410.6700
 Red. masses --      1.2024                 1.1017                 1.1016
 Frc consts  --      0.2214                 1.2903                 1.2915
 IR Inten    --   78.98                  3.028                  3.016

                      7                      8                      9
                      A                      A                      A
 Frequencies --   3123.0951              3304.4796              3304.8102
 Red. masses --      1.0079                 1.1185                 1.1186
 Frc consts  --      5.7922                 7.1963                 7.1982
 IR Inten    --  0.8663E-03              3.095                  3.093

 - Thermochemistry -
 -------------------
 Temperature   298.150 Kelvin.  Pressure   1.00000 Atm.
 Atom     1 has atomic number  6 and mass  12.00000

 Molecular mass:    16.03130 amu.
 Principal axes and moments of inertia in atomic units:
                           1         2         3
     Eigenvalues --    12.54771  36.72772  36.73234
           X            0.03418  -0.07895   0.99629
           Y            0.99924  -0.01595  -0.03554
           Z            0.01870   0.99675   0.07834
 This molecule is an asymmetric top.
 Rotational symmetry number  1.
 Rotational temperatures (Kelvin)      6.90276     2.35827     2.35797
 Rotational constants (GHZ):         143.83029    49.13839    49.13221
    1 imaginary frequencies ignored.
 Zero-point vibrational energy      80917.3 (Joules/Mol)
                                   19.33970 (Kcal/Mol)
 Warning -- explicit consideration of   3 degrees of freedom as
           vibrations may cause significant error
 Vibrational temperatures:    293.05   305.96   804.27  2028.57  2029.64
          (Kelvin)           4493.43  4754.40  4754.88

 Zero-point correction=                           0.030820 (Hartree/Particle)
 Thermal correction to Energy=                    0.034947
 Thermal correction to Enthalpy=                  0.035891
 Thermal correction to Gibbs Free Energy=         0.009084
 Sum of electronic and zero-point Energies=            -40.312455
 Sum of electronic and thermal Energies=               -40.308328
 Sum of electronic and thermal Enthalpies=             -40.307384
 Sum of electronic and thermal Free Energies=          -40.334191

                     E (Thermal)             CV                S
                      KCal/Mol        Cal/Mol-Kelvin    Cal/Mol-Kelvin
 Total                   21.929             10.943             56.419
 Electronic               0.000              0.000              0.000
 Translational            0.889              2.981             34.261
 Rotational               0.889              2.981             17.477
 Vibrational             20.152              4.981              4.681
 Vibration     1          0.639              1.835              2.100
 Vibration     2          0.644              1.822              2.021
 Vibration     3          0.915              1.120              0.526

 Normal termination of Gaussian 09 at Sat Jun  3 08:53:22 2023.
