 Gaussian 09, Revision D.01,
 Gaussian 09:  EM64L-G09RevD.01 24-Apr-2013

 ----------------------------------------------------------------------
 #UWB97XD/AUG-CC-PVTZ #opt(calcfc,maxcyc=1) iop(7/33=1) guess=read geom
 =check int=ultra
 ----------------------------------------------------------------------

 ------
 geom 0
 ------
 Structure from the checkpoint file:  "tmp.chk"
 Charge =  0 Multiplicity = 1

 SCF Done:  E(UwB97XD) =  -79.8332128739     A.U. after    3 cycles

 The electronic state is 1-A.
 Alpha  occ. eigenvalues --  -10.26996 -10.26973  -0.85233  -0.70995  -0.52154
 Alpha  occ. eigenvalues --   -0.52152  -0.45072  -0.42385  -0.42384
 Alpha virt. eigenvalues --    0.03411   0.04499   0.04629   0.04629   0.07085
 Alpha virt. eigenvalues --    0.07085   0.10391   0.12315   0.12322   0.12322
 Alpha virt. eigenvalues --    0.13327   0.14225   0.14225   0.17685   0.20255

  Beta  occ. eigenvalues --  -10.26996 -10.26973  -0.85233  -0.70995  -0.52154
  Beta  occ. eigenvalues --   -0.52152  -0.45072  -0.42385  -0.42384
  Beta virt. eigenvalues --    0.03411   0.04499   0.04629   0.04629   0.07085
  Beta virt. eigenvalues --    0.07085   0.10391   0.12315   0.12322   0.12322
  Beta virt. eigenvalues --    0.13327   0.14225   0.14225   0.17685   0.20255

 Mulliken charges and spin densities:
               1          2
     1  C   -0.771170  -0.000000
     2  H    0.257130   0.000000
     3  H    0.256893  -0.000000
     4  H    0.257122   0.000000
     5  C   -0.771100   0.000000
     6  H    0.256880  -0.000000
     7  H    0.257112   0.000000
     8  H    0.257133   0.000000
 Sum of Mulliken charges =  -0.00000   0.00000

 Dipole moment (field-independent basis, Debye):
    X=              0.0000    Y=              0.0000    Z=              0.0000  Tot=              0.0000
 Quadrupole moment (field-independent basis, Debye-Ang):
   XX=            -15.5194   YY=            -14.7996   ZZ=            -14.8001
   XY=              0.0001   XZ=             -0.0000   YZ=             -0.0000

  Exact polarizability:   0.000   0.000   0.000   0.000   0.000   0.000
 Approx polarizability:  28.448   0.000  28.055   0.000   0.000  28.055

 Optimization completed.
    -- Stationary point found.

                         Standard orientation:
 ---------------------------------------------------------------------
 Center     Atomic      Atomic             Coordinates (Angstroms)
 Number     Number       Type             X           Y           Z
 ---------------------------------------------------------------------
      1          6           0        0.761429   -0.000020   -0.000012
      2          1           0        1.156767   -0.983324   -0.255861
      3          1           0        1.156745    0.713294   -0.723595
      4          1           0        1.156695    0.270108    0.979517
      5          6           0       -0.761448   -0.000005    0.000006
      6          1           0       -1.156723   -0.712449    0.724442
      7          1           0       -1.156742   -0.271134   -0.979224
      8          1           0       -1.156630    0.983655    0.254758
 ---------------------------------------------------------------------

 Normal termination of Gaussian 09 at Wed May 24 13:56:36 2023.
