 Gaussian 09, Revision D.01,
 Gaussian 09:  EM64L-G09RevD.01 24-Apr-2013

 ----------------------------------------------------------------------
 # uwb97xd/aug-cc-pvtz opt=(noeig,intern,maxcyc=50) # int=ultrafine nos
 ym iop(7/33=1) guess=(mix,always)
 ----------------------------------------------------------------------

 ------
 geom 0
 ------
 Symbolic Z-matrix:
 Charge =  0 Multiplicity = 1

 SCF Done:  E(UwB97XD) =  -79.6811975046     A.U. after   10 cycles

 Alpha  occ. eigenvalues --  -10.29493 -10.28395  -0.78435  -0.73994  -0.50722
 Alpha  occ. eigenvalues --   -0.50715  -0.49484  -0.49478  -0.31203
 Alpha virt. eigenvalues --    0.00295   0.03281   0.04670   0.04674   0.05387
 Alpha virt. eigenvalues --    0.06768   0.06777   0.11158   0.12321   0.12344
 Alpha virt. eigenvalues --    0.13065   0.13977   0.13988   0.15141   0.16072

  Beta  occ. eigenvalues --  -10.29490 -10.28398  -0.78432  -0.73997  -0.50719
  Beta  occ. eigenvalues --   -0.50712  -0.49488  -0.49479  -0.31200
  Beta virt. eigenvalues --    0.00291   0.03282   0.04671   0.04673   0.05385
  Beta virt. eigenvalues --    0.06768   0.06777   0.11156   0.12318   0.12343
  Beta virt. eigenvalues --    0.13065   0.13975   0.13988   0.15139   0.16066

 Mulliken charges and spin densities:
               1          2
     1  C   -1.080489  -1.017227
     2  H    0.359851   0.011354
     3  H    0.360103   0.011444
     4  H    0.360558   0.011121
     5  C   -1.080316   1.017307
     6  H    0.359897  -0.011529
     7  H    0.360094  -0.011197
     8  H    0.360300  -0.011272
 Sum of Mulliken charges =  -0.00000   0.00000

 Dipole moment (field-independent basis, Debye):
    X=              0.0001    Y=             -0.0045    Z=              0.0001  Tot=              0.0045
 Quadrupole moment (field-independent basis, Debye-Ang):
   XX=            -14.4275   YY=            -18.0697   ZZ=            -14.4268
   XY=             -0.0051   XZ=              0.0005   YZ=             -0.0302

 Optimization completed.
    -- Stationary point found.

                         Z-Matrix orientation:
 ---------------------------------------------------------------------
 Center     Atomic      Atomic             Coordinates (Angstroms)
 Number     Number       Type             X           Y           Z
 ---------------------------------------------------------------------
      1          6           0        0.000000    0.000000    0.000000
      2          1           0        0.000000    0.000000    1.078200
      3          1           0        0.934011    0.000000   -0.538645
      4          1           0       -0.933548   -0.003135   -0.539437
      5          6           0       -0.031634   -3.599717   -0.032213
      6          1           0       -0.961325   -3.605933    0.513819
      7          1           0        0.905841   -3.614411    0.500178
      8          1           0       -0.039300   -3.581950   -1.110240
 ---------------------------------------------------------------------

 Normal termination of Gaussian 09 at Sat May 27 09:31:43 2023.
