 Gaussian 09, Revision D.01,
 Gaussian 09:  EM64L-G09RevD.01 24-Apr-2013

 ----------------------------------------------------------------------
 # uwb97xd/aug-cc-pvtz opt=(noeig,intern,maxcyc=50) # int=ultrafine nos
 ym freq iop(7/33=1) guess=(mix,always)
 ----------------------------------------------------------------------

 ------
 geom 0
 ------
 Symbolic Z-matrix:
 Charge =  0 Multiplicity = 1

 SCF Done:  E(UwB97XD) =  -79.6684381413     A.U. after   11 cycles
 SCF Done:  E(UwB97XD) =  -79.6745748276     A.U. after   11 cycles
 SCF Done:  E(UwB97XD) =  -79.6779588041     A.U. after   10 cycles
 SCF Done:  E(UwB97XD) =  -79.6797970218     A.U. after   11 cycles
 SCF Done:  E(UwB97XD) =  -79.6804937923     A.U. after   11 cycles
 SCF Done:  E(UwB97XD) =  -79.6811421839     A.U. after   10 cycles
 SCF Done:  E(UwB97XD) =  -79.6812026504     A.U. after   10 cycles
 SCF Done:  E(UwB97XD) =  -79.6812060948     A.U. after   10 cycles
 SCF Done:  E(UwB97XD) =  -79.6812062326     A.U. after   10 cycles
 Optimization completed.
    -- Stationary point found.
 Normal termination of Gaussian 09 at Sat May 27 09:06:31 2023.

 ----------------------------------------------------------------------
 #N Geom=AllCheck Guess=TCheck SCRF=Check Test GenChk UwB97XD/Aug-CC-pV
 TZ Freq
 ----------------------------------------------------------------------

 Structure from the checkpoint file:  "tmp.chk"
 ------
 geom 0
 ------
 Charge =  0 Multiplicity = 1

                          Input orientation:
 ---------------------------------------------------------------------
 Center     Atomic      Atomic             Coordinates (Angstroms)
 Number     Number       Type             X           Y           Z
 ---------------------------------------------------------------------
      1          6           0        0.000000    0.000000    0.000000
      2          1           0        0.000000    0.000000    1.078154
      3          1           0        0.933895    0.000000   -0.538828
      4          1           0       -0.933208    0.028049   -0.539242
      5          6           0       -0.031631   -3.599717   -0.032211
      6          1           0       -0.961288   -3.605933    0.513802
      7          1           0        0.905801   -3.614411    0.500241
      8          1           0       -0.039377   -3.606932   -1.110319
 ---------------------------------------------------------------------

 SCF Done:  E(UwB97XD) =  -79.6812062326     A.U. after    1 cycles

 Alpha  occ. eigenvalues --  -10.29483 -10.28388  -0.78424  -0.73988  -0.50710
 Alpha  occ. eigenvalues --   -0.50702  -0.49476  -0.49469  -0.31190
 Alpha virt. eigenvalues --    0.00303   0.03285   0.04672   0.04674   0.05377
 Alpha virt. eigenvalues --    0.06764   0.06769   0.11165   0.12349   0.12364
 Alpha virt. eigenvalues --    0.13073   0.13969   0.13976   0.15133   0.16034

  Beta  occ. eigenvalues --  -10.29483 -10.28388  -0.78424  -0.73988  -0.50709
  Beta  occ. eigenvalues --   -0.50703  -0.49477  -0.49468  -0.31190
  Beta virt. eigenvalues --    0.00303   0.03285   0.04672   0.04674   0.05377
  Beta virt. eigenvalues --    0.06764   0.06769   0.11165   0.12349   0.12363
  Beta virt. eigenvalues --    0.13073   0.13970   0.13976   0.15133   0.16034

 Mulliken charges and spin densities:
               1          2
     1  C   -1.079155  -1.017358
     2  H    0.359702   0.011482
     3  H    0.359893   0.011361
     4  H    0.359561   0.011507
     5  C   -1.079159   1.017383
     6  H    0.359688  -0.011434
     7  H    0.359976  -0.011387
     8  H    0.359493  -0.011553
 Sum of Mulliken charges =  -0.00000   0.00000

 Dipole moment (field-independent basis, Debye):
    X=              0.0002    Y=             -0.0001    Z=              0.0002  Tot=              0.0003
 Quadrupole moment (field-independent basis, Debye-Ang):
   XX=            -14.4293   YY=            -17.9447   ZZ=            -14.4270
   XY=             -0.0349   XZ=             -0.0000   YZ=             -0.0188

  Exact polarizability:  31.194   0.108  43.327   0.001   0.101  31.187
 Approx polarizability:  29.567   0.027  32.894   0.001   0.038  29.568

 ******    1 imaginary frequencies (negative Signs) ******

                      1                      2                      3
                      A                      A                      A
 Frequencies --   -108.2951                13.7908               145.5074
 Red. masses --      4.3654                 1.0078                 1.0079
 Frc consts  --      0.0302                 0.0001                 0.0126
 IR Inten    --  0.2712E-04             0.7216E-03             0.1708E-01

                      4                      5                      6
                      A                      A                      A
 Frequencies --    161.9149               167.4964               181.1562
 Red. masses --      1.0079                 1.0359                 1.0359
 Frc consts  --      0.0156                 0.0171                 0.0200
 IR Inten    --  0.2175E-01             0.2794E-03             0.1157E-03

                      7                      8                      9
                      A                      A                      A
 Frequencies --    531.0272               534.1821              1408.4978
 Red. masses --      1.1814                 1.2355                 1.1019
 Frc consts  --      0.1963                 0.2077                 1.2880
 IR Inten    --  0.2365                  159.5                  5.384

                     10                     11                     12
                      A                      A                      A
 Frequencies --   1408.7763              1410.5199              1410.7914
 Red. masses --      1.1019                 1.1017                 1.1015
 Frc consts  --      1.2885                 1.2914                 1.2918
 IR Inten    --   5.335                 0.6368E-02             0.2969E-03

                     13                     14                     15
                      A                      A                      A
 Frequencies --   3123.9248              3124.1367              3304.8648
 Red. masses --      1.0078                 1.0078                 1.1187
 Frc consts  --      5.7948                 5.7957                 7.1987
 IR Inten    --  0.1478E-01             0.3279E-04             0.2901

                     16                     17                     18
                      A                      A                      A
 Frequencies --   3304.9646              3305.4007              3305.5045
 Red. masses --      1.1186                 1.1185                 1.1185
 Frc consts  --      7.1989                 7.2003                 7.2005
 IR Inten    --  0.6529                  6.611                  6.893

 - Thermochemistry -
 -------------------
 Temperature   298.150 Kelvin.  Pressure   1.00000 Atm.
 Atom     1 has atomic number  6 and mass  12.00000

 Molecular mass:    30.04695 amu.
 Principal axes and moments of inertia in atomic units:
                           1         2         3
     Eigenvalues --    25.09951 360.92889 360.93279
           X            0.00875   0.08781   0.99610
           Y            0.99992  -0.00980  -0.00792
           Z            0.00907   0.99609  -0.08789
 This molecule is an asymmetric top.
 Rotational symmetry number  1.
 Rotational temperatures (Kelvin)      3.45082     0.23997     0.23997
 Rotational constants (GHZ):          71.90345     5.00027     5.00021
    1 imaginary frequencies ignored.
 Zero-point vibrational energy     160553.5 (Joules/Mol)
                                   38.37322 (Kcal/Mol)
 Warning -- explicit consideration of   7 degrees of freedom as
           vibrations may cause significant error
 Vibrational temperatures:     19.84   209.35   232.96   240.99   260.64
          (Kelvin)            764.03   768.57  2026.51  2026.91  2029.42
                             2029.81  4494.63  4494.93  4754.96  4755.10
                             4755.73  4755.88

 Zero-point correction=                           0.061152 (Hartree/Particle)
 Thermal correction to Energy=                    0.067806
 Thermal correction to Enthalpy=                  0.068751
 Thermal correction to Gibbs Free Energy=         0.031936
 Sum of electronic and zero-point Energies=            -79.620055
 Sum of electronic and thermal Energies=               -79.613400
 Sum of electronic and thermal Enthalpies=             -79.612456
 Sum of electronic and thermal Free Energies=          -79.649270

                     E (Thermal)             CV                S
                      KCal/Mol        Cal/Mol-Kelvin    Cal/Mol-Kelvin
 Total                   42.549             18.258             77.483
 Electronic               0.000              0.000              0.000
 Translational            0.889              2.981             36.134
 Rotational               0.889              2.981             22.707
 Vibrational             40.772             12.297             18.642
 Vibration     1          0.593              1.986              7.373
 Vibration     2          0.617              1.908              2.730
 Vibration     3          0.622              1.889              2.527
 Vibration     4          0.624              1.882              2.463
 Vibration     5          0.630              1.865              2.316
 Vibration     6          0.886              1.181              0.585
 Vibration     7          0.889              1.174              0.578

 Normal termination of Gaussian 09 at Sat May 27 09:09:10 2023.
