 Gaussian 09, Revision D.01,
 Gaussian 09:  EM64L-G09RevD.01 24-Apr-2013

 ----------------------------------------------------------------------
 # uwb97xd/aug-cc-pvtz opt=(noeig,intern,maxcyc=50) # int=ultrafine nos
 ym iop(7/33=1) guess=(mix,always)
 ----------------------------------------------------------------------

 ------
 geom 0
 ------
 Symbolic Z-matrix:
 Charge =  0 Multiplicity = 1

 SCF Done:  E(UwB97XD) =  -40.3417599075     A.U. after   11 cycles

 Alpha  occ. eigenvalues --  -10.29537  -0.78664  -0.50909  -0.50900  -0.31499
 Alpha virt. eigenvalues --    0.03583   0.05302   0.05307   0.10656   0.13199
 Alpha virt. eigenvalues --    0.13341   0.13346   0.13633   0.20126   0.20128
 Alpha virt. eigenvalues --    0.22613   0.25488   0.25492   0.31884   0.32955

  Beta  occ. eigenvalues --  -10.28415  -0.74159  -0.49681  -0.49673  -0.40297
  Beta virt. eigenvalues --   -0.00100   0.04144   0.05321   0.05323   0.06428
  Beta virt. eigenvalues --    0.13492   0.13495   0.13508   0.15030   0.19536
  Beta virt. eigenvalues --    0.19538   0.20342   0.20353   0.21529   0.27857

 Mulliken charges and spin densities:
               1          2
     1  C   -1.050318   1.037861
     2  H    0.349365  -0.012009
     3  H    0.349375  -0.012037
     4  H    0.349396  -0.012058
     5  H    0.002182  -1.001757
 Sum of Mulliken charges =   0.00000   0.00000

 Dipole moment (field-independent basis, Debye):
    X=              0.0001    Y=             -0.0032    Z=              0.0000  Tot=              0.0032
 Quadrupole moment (field-independent basis, Debye-Ang):
   XX=             -8.6096   YY=            -10.5699   ZZ=             -8.6100
   XY=              0.0037   XZ=              0.0009   YZ=              0.0022

 Optimization completed.
    -- Stationary point found.

                         Z-Matrix orientation:
 ---------------------------------------------------------------------
 Center     Atomic      Atomic             Coordinates (Angstroms)
 Number     Number       Type             X           Y           Z
 ---------------------------------------------------------------------
      1          6           0        0.000000    0.000000    0.000000
      2          1           0        0.000000    0.000000    1.078200
      3          1           0        0.934011    0.000000   -0.538645
      4          1           0       -0.933548   -0.003135   -0.539437
      5          1           0        0.019936   -3.799915    0.015752
 ---------------------------------------------------------------------

 Normal termination of Gaussian 09 at Sat Jun  3 09:00:09 2023.
