 Gaussian 09, Revision D.01,
 Gaussian 09:  EM64L-G09RevD.01 24-Apr-2013

 ----------------------------------------------------------------------
 # uwb97xd/aug-cc-pvtz opt=(noeig,intern,maxcyc=50) # int=ultrafine nos
 ym freq iop(7/33=1) guess=(mix,always)
 ----------------------------------------------------------------------

 ------
 geom 0
 ------
 Symbolic Z-matrix:
 Charge =  0 Multiplicity = 1

 SCF Done:  E(UwB97XD) =  -40.3398060369     A.U. after   16 cycles
 SCF Done:  E(UwB97XD) =  -40.3405602529     A.U. after   12 cycles
 SCF Done:  E(UwB97XD) =  -40.3414651848     A.U. after   12 cycles
 SCF Done:  E(UwB97XD) =  -40.3416540251     A.U. after   12 cycles
 SCF Done:  E(UwB97XD) =  -40.3417514534     A.U. after   12 cycles
 SCF Done:  E(UwB97XD) =  -40.3417594658     A.U. after   12 cycles
 SCF Done:  E(UwB97XD) =  -40.3417599528     A.U. after   11 cycles
 Optimization completed.
    -- Stationary point found.
 Normal termination of Gaussian 09 at Sat Jun  3 08:54:52 2023.

 ----------------------------------------------------------------------
 #N Geom=AllCheck Guess=TCheck SCRF=Check Test GenChk UwB97XD/Aug-CC-pV
 TZ Freq
 ----------------------------------------------------------------------

 Structure from the checkpoint file:  "tmp.chk"
 ------
 geom 0
 ------
 Charge =  0 Multiplicity = 1

                          Input orientation:
 ---------------------------------------------------------------------
 Center     Atomic      Atomic             Coordinates (Angstroms)
 Number     Number       Type             X           Y           Z
 ---------------------------------------------------------------------
      1          6           0        0.000000    0.000000    0.000000
      2          1           0        0.000000    0.000000    1.078321
      3          1           0        0.933885    0.000000   -0.538977
      4          1           0       -0.933834   -0.001957   -0.539049
      5          1           0        0.019938   -3.799915    0.015754
 ---------------------------------------------------------------------

 SCF Done:  E(UwB97XD) =  -40.3417599528     A.U. after    1 cycles

 Alpha  occ. eigenvalues --  -10.29540  -0.78662  -0.50905  -0.50900  -0.31499
 Alpha virt. eigenvalues --    0.03583   0.05302   0.05307   0.10656   0.13199
 Alpha virt. eigenvalues --    0.13341   0.13346   0.13632   0.20125   0.20127
 Alpha virt. eigenvalues --    0.22612   0.25488   0.25492   0.31885   0.32955

  Beta  occ. eigenvalues --  -10.28417  -0.74157  -0.49678  -0.49673  -0.40296
  Beta virt. eigenvalues --   -0.00100   0.04143   0.05321   0.05323   0.06428
  Beta virt. eigenvalues --    0.13491   0.13495   0.13508   0.15029   0.19537
  Beta virt. eigenvalues --    0.19538   0.20340   0.20353   0.21528   0.27856

 Mulliken charges and spin densities:
               1          2
     1  C   -1.050278   1.037889
     2  H    0.349345  -0.012033
     3  H    0.349371  -0.012058
     4  H    0.349380  -0.012042
     5  H    0.002182  -1.001755
 Sum of Mulliken charges =  -0.00000  -0.00000

 Dipole moment (field-independent basis, Debye):
    X=             -0.0000    Y=             -0.0024    Z=              0.0000  Tot=              0.0024
 Quadrupole moment (field-independent basis, Debye-Ang):
   XX=             -8.6095   YY=            -10.5703   ZZ=             -8.6103
   XY=              0.0025   XZ=              0.0001   YZ=              0.0016

  Exact polarizability:  20.838  -0.010  22.531   0.000  -0.018  20.831
 Approx polarizability:  17.896   0.000  17.045   0.000  -0.000  17.895

 ******    1 imaginary frequencies (negative Signs) ******

                      1                      2                      3
                      A                      A                      A
 Frequencies --    -93.6362                80.4660               106.8509
 Red. masses --      1.0596                 1.0131                 1.0131
 Frc consts  --      0.0055                 0.0039                 0.0068
 IR Inten    --  0.6328E-01             0.4491E-02             0.1298E-01

                      4                      5                      6
                      A                      A                      A
 Frequencies --    527.2213              1409.5000              1409.7544
 Red. masses --      1.2313                 1.1019                 1.1019
 Frc consts  --      0.2017                 1.2898                 1.2902
 IR Inten    --   82.34                  2.877                  2.882

                      7                      8                      9
                      A                      A                      A
 Frequencies --   3122.2059              3302.9782              3303.8496
 Red. masses --      1.0078                 1.1185                 1.1186
 Frc consts  --      5.7884                 7.1897                 7.1936
 IR Inten    --  0.1412E-01              4.216                  4.176

 - Thermochemistry -
 -------------------
 Temperature   298.150 Kelvin.  Pressure   1.00000 Atm.
 Atom     1 has atomic number  6 and mass  12.00000

 Molecular mass:    16.03130 amu.
 Principal axes and moments of inertia in atomic units:
                           1         2         3
     Eigenvalues --    12.55325  54.97543  54.97663
           X           -0.00587   0.99937  -0.03488
           Y            0.99997   0.00603   0.00446
           Z           -0.00466   0.03485   0.99938
 This molecule is an asymmetric top.
 Rotational symmetry number  1.
 Rotational temperatures (Kelvin)      6.89971     1.57550     1.57547
 Rotational constants (GHZ):         143.76683    32.82814    32.82742
    1 imaginary frequencies ignored.
 Zero-point vibrational energy      79329.3 (Joules/Mol)
                                   18.96016 (Kcal/Mol)
 Warning -- explicit consideration of   3 degrees of freedom as
           vibrations may cause significant error
 Vibrational temperatures:    115.77   153.73   758.55  2027.95  2028.32
          (Kelvin)           4492.15  4752.24  4753.50

 Zero-point correction=                           0.030215 (Hartree/Particle)
 Thermal correction to Energy=                    0.034761
 Thermal correction to Enthalpy=                  0.035705
 Thermal correction to Gibbs Free Energy=         0.007020
 Sum of electronic and zero-point Energies=            -40.311545
 Sum of electronic and thermal Energies=               -40.306999
 Sum of electronic and thermal Enthalpies=             -40.306055
 Sum of electronic and thermal Free Energies=          -40.334740

                     E (Thermal)             CV                S
                      KCal/Mol        Cal/Mol-Kelvin    Cal/Mol-Kelvin
 Total                   21.813             11.263             60.373
 Electronic               0.000              0.000              0.000
 Translational            0.889              2.981             34.261
 Rotational               0.889              2.981             18.279
 Vibrational             20.035              5.301              7.833
 Vibration     1          0.600              1.962              3.879
 Vibration     2          0.606              1.944              3.325
 Vibration     3          0.882              1.190              0.593

 Normal termination of Gaussian 09 at Sat Jun  3 08:55:13 2023.
