 Gaussian 09, Revision D.01,
 Gaussian 09:  EM64L-G09RevD.01 24-Apr-2013

 ----------------------------------------------------------------------
 # uwb97xd/aug-cc-pvtz opt=(noeig,intern,maxcyc=50) # int=ultrafine nos
 ym iop(7/33=1) guess=(mix,always)
 ----------------------------------------------------------------------

 ------
 geom 0
 ------
 Symbolic Z-matrix:
 Charge =  0 Multiplicity = 1

 SCF Done:  E(UwB97XD) =  -79.6795913128     A.U. after   10 cycles

 Alpha  occ. eigenvalues --  -10.29442 -10.28333  -0.78473  -0.74002  -0.50739
 Alpha  occ. eigenvalues --   -0.50730  -0.49518  -0.49508  -0.31263
 Alpha virt. eigenvalues --    0.00090   0.03261   0.04669   0.04673   0.05247
 Alpha virt. eigenvalues --    0.06658   0.06668   0.11337   0.12459   0.12482
 Alpha virt. eigenvalues --    0.13014   0.13894   0.13906   0.14872   0.16032

  Beta  occ. eigenvalues --  -10.29444 -10.28330  -0.78476  -0.74000  -0.50741
  Beta  occ. eigenvalues --   -0.50732  -0.49515  -0.49507  -0.31266
  Beta virt. eigenvalues --    0.00094   0.03261   0.04669   0.04672   0.05248
  Beta virt. eigenvalues --    0.06658   0.06668   0.11339   0.12458   0.12487
  Beta virt. eigenvalues --    0.13014   0.13893   0.13909   0.14872   0.16038

 Mulliken charges and spin densities:
               1          2
     1  C   -1.052237   1.035729
     2  H    0.350806  -0.013185
     3  H    0.350763  -0.013166
     4  H    0.350671  -0.013340
     5  C   -1.052114  -1.035751
     6  H    0.350653   0.013248
     7  H    0.350770   0.013195
     8  H    0.350687   0.013269
 Sum of Mulliken charges =  -0.00000  -0.00000

 Dipole moment (field-independent basis, Debye):
    X=             -0.0000    Y=             -0.0046    Z=             -0.0000  Tot=              0.0046
 Quadrupole moment (field-independent basis, Debye-Ang):
   XX=            -14.4134   YY=            -18.1592   ZZ=            -14.4122
   XY=              0.0338   XZ=              0.0001   YZ=              0.0343

 Optimization completed.
    -- Stationary point found.

                         Z-Matrix orientation:
 ---------------------------------------------------------------------
 Center     Atomic      Atomic             Coordinates (Angstroms)
 Number     Number       Type             X           Y           Z
 ---------------------------------------------------------------------
      1          6           0        0.000000    0.000000    0.000000
      2          1           0        0.000000    0.000000    1.078200
      3          1           0        0.934011    0.000000   -0.538645
      4          1           0       -0.933548   -0.003135   -0.539437
      5          6           0        0.045782   -3.999729    0.008399
      6          1           0       -0.883661   -4.006275    0.554848
      7          1           0        0.983276   -3.976226    0.540440
      8          1           0        0.037916   -4.019811   -1.069586
 ---------------------------------------------------------------------

 Normal termination of Gaussian 09 at Sat May 27 09:32:04 2023.
