 Gaussian 09, Revision D.01,
 Gaussian 09:  EM64L-G09RevD.01 24-Apr-2013

 ----------------------------------------------------------------------
 # uwb97xd/aug-cc-pvtz opt=(noeig,intern,maxcyc=50) # int=ultrafine nos
 ym freq iop(7/33=1) guess=(mix,always)
 ----------------------------------------------------------------------

 ------
 geom 0
 ------
 Symbolic Z-matrix:
 Charge =  0 Multiplicity = 1

 SCF Done:  E(UwB97XD) =  -79.6664416410     A.U. after   10 cycles
 SCF Done:  E(UwB97XD) =  -79.6726133348     A.U. after   11 cycles
 SCF Done:  E(UwB97XD) =  -79.6761112935     A.U. after   11 cycles
 SCF Done:  E(UwB97XD) =  -79.6780080691     A.U. after   10 cycles
 SCF Done:  E(UwB97XD) =  -79.6788089631     A.U. after   10 cycles
 SCF Done:  E(UwB97XD) =  -79.6795138074     A.U. after   10 cycles
 SCF Done:  E(UwB97XD) =  -79.6795845358     A.U. after   10 cycles
 SCF Done:  E(UwB97XD) =  -79.6795893856     A.U. after   10 cycles
 SCF Done:  E(UwB97XD) =  -79.6795918329     A.U. after   10 cycles
 Optimization completed.
    -- Stationary point found.
 Normal termination of Gaussian 09 at Sat May 27 09:10:34 2023.

 ----------------------------------------------------------------------
 #N Geom=AllCheck Guess=TCheck SCRF=Check Test GenChk UwB97XD/Aug-CC-pV
 TZ Freq
 ----------------------------------------------------------------------

 Structure from the checkpoint file:  "tmp.chk"
 ------
 geom 0
 ------
 Charge =  0 Multiplicity = 1

                          Input orientation:
 ---------------------------------------------------------------------
 Center     Atomic      Atomic             Coordinates (Angstroms)
 Number     Number       Type             X           Y           Z
 ---------------------------------------------------------------------
      1          6           0        0.000000    0.000000    0.000000
      2          1           0        0.000000    0.000000    1.078182
      3          1           0        0.934013    0.000000   -0.538741
      4          1           0       -0.933502   -0.005296   -0.539528
      5          6           0        0.045780   -3.999729    0.008401
      6          1           0       -0.883654   -4.006275    0.554846
      7          1           0        0.983211   -3.976223    0.540655
      8          1           0        0.037878   -4.010873   -1.069717
 ---------------------------------------------------------------------

 SCF Done:  E(UwB97XD) =  -79.6795918330     A.U. after    1 cycles

 Alpha  occ. eigenvalues --  -10.29445 -10.28334  -0.78476  -0.74002  -0.50742
 Alpha  occ. eigenvalues --   -0.50733  -0.49520  -0.49507  -0.31267
 Alpha virt. eigenvalues --    0.00090   0.03260   0.04669   0.04672   0.05249
 Alpha virt. eigenvalues --    0.06661   0.06667   0.11336   0.12458   0.12475
 Alpha virt. eigenvalues --    0.13012   0.13899   0.13907   0.14873   0.16042

  Beta  occ. eigenvalues --  -10.29445 -10.28334  -0.78476  -0.74002  -0.50743
  Beta  occ. eigenvalues --   -0.50731  -0.49518  -0.49509  -0.31267
  Beta virt. eigenvalues --    0.00090   0.03260   0.04669   0.04672   0.05249
  Beta virt. eigenvalues --    0.06660   0.06667   0.11335   0.12457   0.12476
  Beta virt. eigenvalues --    0.13012   0.13898   0.13908   0.14873   0.16042

 Mulliken charges and spin densities:
               1          2
     1  C   -1.052322   1.035770
     2  H    0.350832  -0.013171
     3  H    0.350785  -0.013196
     4  H    0.350705  -0.013343
     5  C   -1.052338  -1.035754
     6  H    0.350730   0.013237
     7  H    0.350818   0.013224
     8  H    0.350791   0.013234
 Sum of Mulliken charges =  -0.00000  -0.00000

 Dipole moment (field-independent basis, Debye):
    X=             -0.0001    Y=              0.0004    Z=             -0.0000  Tot=              0.0004
 Quadrupole moment (field-independent basis, Debye-Ang):
   XX=            -14.4140   YY=            -18.2098   ZZ=            -14.4112
   XY=              0.0366   XZ=              0.0003   YZ=              0.0255

  Exact polarizability:  31.401  -0.084  38.714   0.001  -0.025  31.394
 Approx polarizability:  29.479  -0.011  30.081   0.001   0.009  29.481

 ******    2 imaginary frequencies (negative Signs) ******

                      1                      2                      3
                      A                      A                      A
 Frequencies --    -72.7778                -3.2848                91.8933
 Red. masses --      3.9714                 1.0078                 1.0107
 Frc consts  --      0.0124                 0.0000                 0.0050
 IR Inten    --  0.1617E-04             0.8118E-03             0.1187E-01

                      4                      5                      6
                      A                      A                      A
 Frequencies --    101.1764               117.0241               120.6602
 Red. masses --      1.0260                 1.0082                 1.0288
 Frc consts  --      0.0062                 0.0081                 0.0088
 IR Inten    --  0.1843E-02             0.1336E-01             0.6415E-03

                      7                      8                      9
                      A                      A                      A
 Frequencies --    525.7476               529.2735              1408.8826
 Red. masses --      1.2356                 1.2138                 1.1019
 Frc consts  --      0.2012                 0.2003                 1.2887
 IR Inten    --   167.9                 0.7081E-01              5.465

                     10                     11                     12
                      A                      A                      A
 Frequencies --   1409.2390              1410.1982              1410.5480
 Red. masses --      1.1019                 1.1018                 1.1017
 Frc consts  --      1.2893                 1.2909                 1.2915
 IR Inten    --   5.319                 0.1140                 0.2927E-01

                     13                     14                     15
                      A                      A                      A
 Frequencies --   3122.9347              3123.1639              3303.9308
 Red. masses --      1.0078                 1.0078                 1.1186
 Frc consts  --      5.7911                 5.7920                 7.1941
 IR Inten    --  0.6703E-01             0.5657E-04              1.440

                     16                     17                     18
                      A                      A                      A
 Frequencies --   3303.9612              3304.4500              3304.4869
 Red. masses --      1.1186                 1.1185                 1.1186
 Frc consts  --      7.1942                 7.1962                 7.1964
 IR Inten    --   1.563                  6.303                  6.482

 - Thermochemistry -
 -------------------
 Temperature   298.150 Kelvin.  Pressure   1.00000 Atm.
 Atom     1 has atomic number  6 and mass  12.00000

 Molecular mass:    30.04695 amu.
 Principal axes and moments of inertia in atomic units:
                           1         2         3
     Eigenvalues --    25.10280 441.58848 441.59376
           X           -0.01150   0.21402   0.97676
           Y            0.99993   0.00439   0.01081
           Z           -0.00197   0.97682  -0.21406
 This molecule is an asymmetric top.
 Rotational symmetry number  1.
 Rotational temperatures (Kelvin)      3.45036     0.19614     0.19614
 Rotational constants (GHZ):          71.89402     4.08693     4.08688
    2 imaginary frequencies ignored.
 Zero-point vibrational energy     159029.0 (Joules/Mol)
                                   38.00884 (Kcal/Mol)
 Warning -- explicit consideration of   6 degrees of freedom as
           vibrations may cause significant error
 Vibrational temperatures:    132.21   145.57   168.37   173.60   756.43
          (Kelvin)            761.51  2027.07  2027.58  2028.96  2029.46
                             4493.20  4493.53  4753.61  4753.66  4754.36
                             4754.41

 Zero-point correction=                           0.060571 (Hartree/Particle)
 Thermal correction to Energy=                    0.066722
 Thermal correction to Enthalpy=                  0.067666
 Thermal correction to Gibbs Free Energy=         0.032608
 Sum of electronic and zero-point Energies=            -79.619021
 Sum of electronic and thermal Energies=               -79.612870
 Sum of electronic and thermal Enthalpies=             -79.611925
 Sum of electronic and thermal Free Energies=          -79.646984

                     E (Thermal)             CV                S
                      KCal/Mol        Cal/Mol-Kelvin    Cal/Mol-Kelvin
 Total                   41.869             16.520             73.786
 Electronic               0.000              0.000              0.000
 Translational            0.889              2.981             36.134
 Rotational               0.889              2.981             23.108
 Vibrational             40.091             10.559             14.544
 Vibration     1          0.602              1.955              3.619
 Vibration     2          0.604              1.948              3.432
 Vibration     3          0.608              1.935              3.149
 Vibration     4          0.609              1.932              3.090
 Vibration     5          0.881              1.193              0.597
 Vibration     6          0.884              1.185              0.589

 Normal termination of Gaussian 09 at Sat May 27 09:12:01 2023.
