 Gaussian 09, Revision D.01,
 Gaussian 09:  EM64L-G09RevD.01 24-Apr-2013

 ----------------------------------------------------------------------
 # uwb97xd/aug-cc-pvtz opt=(noeig,intern,maxcyc=50) # int=ultrafine nos
 ym iop(7/33=1) guess=(mix,always)
 ----------------------------------------------------------------------

 ------
 geom 0
 ------
 Symbolic Z-matrix:
 Charge =  0 Multiplicity = 1

 SCF Done:  E(UwB97XD) =  -40.3626293522     A.U. after   14 cycles
 SCF Done:  E(UwB97XD) =  -40.3636207848     A.U. after   15 cycles
 SCF Done:  E(UwB97XD) =  -40.3646559691     A.U. after   15 cycles
 SCF Done:  E(UwB97XD) =  -40.3647181346     A.U. after   15 cycles
 Optimization completed.
    -- Stationary point found.

                         Z-Matrix orientation:
 ---------------------------------------------------------------------
 Center     Atomic      Atomic             Coordinates (Angstroms)
 Number     Number       Type             X           Y           Z
 ---------------------------------------------------------------------
      1          6           0        0.000000    0.000000    0.000000
      2          1           0        0.000000    0.000000    1.078200
      3          1           0        0.934011    0.000000   -0.538645
      4          1           0       -0.933548   -0.003135   -0.539437
      5          1           0        0.004732   -2.199995   -0.000466
 ---------------------------------------------------------------------

 Alpha  occ. eigenvalues --  -10.32918  -0.80051  -0.52496  -0.52487  -0.33435
 Alpha virt. eigenvalues --   -0.02010   0.03776   0.05056   0.05057   0.09010
 Alpha virt. eigenvalues --    0.10948   0.12553   0.12554   0.13658   0.19275
 Alpha virt. eigenvalues --    0.19279   0.20853   0.20858   0.27636   0.30115

  Beta  occ. eigenvalues --  -10.32205  -0.77013  -0.51714  -0.51705  -0.36374
  Beta virt. eigenvalues --   -0.00378   0.04212   0.05098   0.05099   0.06773
  Beta virt. eigenvalues --    0.12505   0.12755   0.12757   0.14152   0.19446
  Beta virt. eigenvalues --    0.19449   0.21171   0.21175   0.28055   0.30499

 Mulliken charges and spin densities:
               1          2
     1  C   -1.036645   0.680929
     2  H    0.370410  -0.002900
     3  H    0.370526  -0.002962
     4  H    0.370487  -0.002980
     5  H   -0.074779  -0.672086
 Sum of Mulliken charges =  -0.00000   0.00000

 Dipole moment (field-independent basis, Debye):
    X=             -0.0020    Y=              1.0583    Z=             -0.0000  Tot=              1.0583
 Quadrupole moment (field-independent basis, Debye-Ang):
   XX=             -8.6120   YY=            -11.9283   ZZ=             -8.6125
   XY=              0.0060   XZ=              0.0009   YZ=              0.0023

 Normal termination of Gaussian 09 at Sat Jun  3 08:59:36 2023.
