 Gaussian 09, Revision D.01,
 Gaussian 09:  EM64L-G09RevD.01 24-Apr-2013

 ----------------------------------------------------------------------
 # uwb97xd/aug-cc-pvtz opt=(noeig,intern,maxcyc=50) # int=ultrafine nos
 ym freq iop(7/33=1) guess=(mix,always)
 ----------------------------------------------------------------------

 ------
 geom 0
 ------
 Symbolic Z-matrix:
 Charge =  0 Multiplicity = 1

 SCF Done:  E(UwB97XD) =  -40.3666027501     A.U. after   14 cycles
 SCF Done:  E(UwB97XD) =  -40.3668298323     A.U. after   14 cycles
 SCF Done:  E(UwB97XD) =  -40.3669420547     A.U. after   15 cycles
 SCF Done:  E(UwB97XD) =  -40.3669431149     A.U. after   15 cycles
 Optimization completed.
    -- Stationary point found.
 Normal termination of Gaussian 09 at Sat Jun  3 08:52:30 2023.

 ----------------------------------------------------------------------
 #N Geom=AllCheck Guess=TCheck SCRF=Check Test GenChk UwB97XD/Aug-CC-pV
 TZ Freq
 ----------------------------------------------------------------------

 Structure from the checkpoint file:  "tmp.chk"
 ------
 geom 0
 ------
 Charge =  0 Multiplicity = 1

                          Input orientation:
 ---------------------------------------------------------------------
 Center     Atomic      Atomic             Coordinates (Angstroms)
 Number     Number       Type             X           Y           Z
 ---------------------------------------------------------------------
      1          6           0        0.000000    0.000000    0.000000
      2          1           0        0.000000    0.000000    1.078457
      3          1           0        0.948297    0.000000   -0.513899
      4          1           0       -0.860614    0.398482   -0.513738
      5          1           0       -0.468835   -2.131296   -0.278875
 ---------------------------------------------------------------------

 SCF Done:  E(UwB97XD) =  -40.3669431149     A.U. after    1 cycles

 Alpha  occ. eigenvalues --  -10.33090  -0.80029  -0.52259  -0.52234  -0.33912
 Alpha virt. eigenvalues --   -0.01838   0.03748   0.05028   0.05030   0.08999
 Alpha virt. eigenvalues --    0.11133   0.12601   0.12605   0.13671   0.19446
 Alpha virt. eigenvalues --    0.19449   0.20593   0.20596   0.27652   0.30382

  Beta  occ. eigenvalues --  -10.32402  -0.77188  -0.51476  -0.51451  -0.36365
  Beta virt. eigenvalues --   -0.00400   0.04105   0.05098   0.05100   0.06768
  Beta virt. eigenvalues --    0.12400   0.12675   0.12680   0.13954   0.19595
  Beta virt. eigenvalues --    0.19598   0.20903   0.20907   0.27922   0.30769

 Mulliken charges and spin densities:
               1          2
     1  C   -1.009381   0.632225
     2  H    0.357103   0.002786
     3  H    0.357145   0.002811
     4  H    0.357153   0.002888
     5  H   -0.062020  -0.640709
 Sum of Mulliken charges =  -0.00000  -0.00000

 Dipole moment (field-independent basis, Debye):
    X=              0.2666    Y=              1.2113    Z=              0.1583  Tot=              1.2504
 Quadrupole moment (field-independent basis, Debye-Ang):
   XX=             -8.8122   YY=            -11.3726   ZZ=             -8.7232
   XY=             -0.5927   XZ=             -0.0781   YZ=             -0.3537

  Exact polarizability:  22.044   5.764  46.969   0.751   3.423  21.223
 Approx polarizability:  19.758   4.780  40.441   0.625   2.841  19.081

 ******    1 imaginary frequencies (negative Signs) ******

                      1                      2                      3
                      A                      A                      A
 Frequencies --  -1324.7844               688.5178               690.4286
 Red. masses --      1.1031                 1.0401                 1.0402
 Frc consts  --      1.1407                 0.2905                 0.2921
 IR Inten    --   22.65                 0.9704                 0.9580

                      4                      5                      6
                      A                      A                      A
 Frequencies --    909.6875              1423.6493              1424.4702
 Red. masses --      1.1733                 1.0949                 1.0947
 Frc consts  --      0.5721                 1.3074                 1.3088
 IR Inten    --   3.960                  3.695                  3.669

                      7                      8                      9
                      A                      A                      A
 Frequencies --   3130.8607              3305.9109              3306.9733
 Red. masses --      1.0108                 1.1177                 1.1178
 Frc consts  --      5.8377                 7.1969                 7.2023
 IR Inten    --   1.755                 0.4730                 0.4526

 - Thermochemistry -
 -------------------
 Temperature   298.150 Kelvin.  Pressure   1.00000 Atm.
 Atom     1 has atomic number  6 and mass  12.00000

 Molecular mass:    16.03130 amu.
 Principal axes and moments of inertia in atomic units:
                           1         2         3
     Eigenvalues --    12.35700  23.07200  23.08103
           X            0.21295  -0.06521   0.97489
           Y            0.96885  -0.11505  -0.21932
           Z            0.12647   0.99122   0.03868
 This molecule is an asymmetric top.
 Rotational symmetry number  1.
 Rotational temperatures (Kelvin)      7.00929     3.75407     3.75260
 Rotational constants (GHZ):         146.05009    78.22213    78.19154
    1 imaginary frequencies ignored.
 Zero-point vibrational energy      89005.1 (Joules/Mol)
                                   21.27274 (Kcal/Mol)
 Vibrational temperatures:    990.62   993.37  1308.84  2048.31  2049.49
          (Kelvin)           4504.60  4756.46  4757.99

 Zero-point correction=                           0.033900 (Hartree/Particle)
 Thermal correction to Energy=                    0.037032
 Thermal correction to Enthalpy=                  0.037976
 Thermal correction to Gibbs Free Energy=         0.013458
 Sum of electronic and zero-point Energies=            -40.333043
 Sum of electronic and thermal Energies=               -40.329911
 Sum of electronic and thermal Enthalpies=             -40.328967
 Sum of electronic and thermal Free Energies=          -40.353486

                     E (Thermal)             CV                S
                      KCal/Mol        Cal/Mol-Kelvin    Cal/Mol-Kelvin
 Total                   23.238              8.343             51.604
 Electronic               0.000              0.000              0.000
 Translational            0.889              2.981             34.261
 Rotational               0.889              2.981             16.539
 Vibrational             21.461              2.381              0.804

 Optimization completed.
    -- Stationary point found.
 Normal termination of Gaussian 09 at Sat Jun  3 08:52:48 2023.
